 Entering Link 1 = D:\G09W\l1.exe PID=      7676.
  
 Copyright (c) 1988,1990,1992,1993,1995,1998,2003,2009,2010,
            Gaussian, Inc.  All Rights Reserved.
  
 This is part of the Gaussian(R) 09 program.  It is based on
 the Gaussian(R) 03 system (copyright 2003, Gaussian, Inc.),
 the Gaussian(R) 98 system (copyright 1998, Gaussian, Inc.),
 the Gaussian(R) 94 system (copyright 1995, Gaussian, Inc.),
 the Gaussian 92(TM) system (copyright 1992, Gaussian, Inc.),
 the Gaussian 90(TM) system (copyright 1990, Gaussian, Inc.),
 the Gaussian 88(TM) system (copyright 1988, Gaussian, Inc.),
 the Gaussian 86(TM) system (copyright 1986, Carnegie Mellon
 University), and the Gaussian 82(TM) system (copyright 1983,
 Carnegie Mellon University). Gaussian is a federally registered
 trademark of Gaussian, Inc.
  
 This software contains proprietary and confidential information,
 including trade secrets, belonging to Gaussian, Inc.
  
 This software is provided under written license and may be
 used, copied, transmitted, or stored only in accord with that
 written license.
  
 The following legend is applicable only to US Government
 contracts under FAR:
  
                    RESTRICTED RIGHTS LEGEND
  
 Use, reproduction and disclosure by the US Government is
 subject to restrictions as set forth in subparagraphs (a)
 and (c) of the Commercial Computer Software - Restricted
 Rights clause in FAR 52.227-19.
  
 Gaussian, Inc.
 340 Quinnipiac St., Bldg. 40, Wallingford CT 06492
  
  
 ---------------------------------------------------------------
 Warning -- This program may not be used in any manner that
 competes with the business of Gaussian, Inc. or will provide
 assistance to any competitor of Gaussian, Inc.  The licensee
 of this program is prohibited from giving any competitor of
 Gaussian, Inc. access to this program.  By using this program,
 the user acknowledges that Gaussian, Inc. is engaged in the
 business of creating and licensing software in the field of
 computational chemistry and represents and warrants to the
 licensee that it is not a competitor of Gaussian, Inc. and that
 it will not use this program in any manner prohibited above.
 ---------------------------------------------------------------
  

 Cite this work as:
 Gaussian 09, Revision B.01,
 M. J. Frisch, G. W. Trucks, H. B. Schlegel, G. E. Scuseria, 
 M. A. Robb, J. R. Cheeseman, G. Scalmani, V. Barone, B. Mennucci, 
 G. A. Petersson, H. Nakatsuji, M. Caricato, X. Li, H. P. Hratchian, 
 A. F. Izmaylov, J. Bloino, G. Zheng, J. L. Sonnenberg, M. Hada, 
 M. Ehara, K. Toyota, R. Fukuda, J. Hasegawa, M. Ishida, T. Nakajima, 
 Y. Honda, O. Kitao, H. Nakai, T. Vreven, J. A. Montgomery, Jr., 
 J. E. Peralta, F. Ogliaro, M. Bearpark, J. J. Heyd, E. Brothers, 
 K. N. Kudin, V. N. Staroverov, T. Keith, R. Kobayashi, J. Normand, 
 K. Raghavachari, A. Rendell, J. C. Burant, S. S. Iyengar, J. Tomasi, 
 M. Cossi, N. Rega, J. M. Millam, M. Klene, J. E. Knox, J. B. Cross, 
 V. Bakken, C. Adamo, J. Jaramillo, R. Gomperts, R. E. Stratmann, 
 O. Yazyev, A. J. Austin, R. Cammi, C. Pomelli, J. W. Ochterski, 
 R. L. Martin, K. Morokuma, V. G. Zakrzewski, G. A. Voth, 
 P. Salvador, J. J. Dannenberg, S. Dapprich, A. D. Daniels, 
 O. Farkas, J. B. Foresman, J. V. Ortiz, J. Cioslowski, 
 and D. J. Fox, Gaussian, Inc., Wallingford CT, 2010.
 
 ******************************************
 Gaussian 09:  IA32W-G09RevB.01 12-Aug-2010
                31-Aug-2019 
 ******************************************
 --------------------------
 #p UMP2(Full)/6-31G nosymm
 --------------------------
 1/38=1/1;
 2/12=2,15=1,17=6,18=5,40=1/2;
 3/5=1,6=6,11=2,16=1,25=1,30=1,116=2/1,2,3;
 4//1;
 5/5=2,38=5/2;
 8/10=90/1;
 9/16=-3/6;
 6/7=2,8=2,9=2,10=2/1;
 99/5=1,9=1/99;
 Leave Link    1 at Sat Aug 31 11:08:59 2019, MaxMem=          0 cpu:       0.0
 (Enter D:\G09W\l101.exe)
 ---
 H2O
 ---
 Symbolic Z-matrix:
 Charge =  3 Multiplicity = 4
 O                     0.        0.        0. 
 H                     1.        0.        0. 
 H                     0.        1.        0. 
 
 NAtoms=      3 NQM=      3 NQMF=      0 NMic=      0 NMicF=      0 NTot=      3.
                    Isotopes and Nuclear Properties:
 (Nuclear quadrupole moments (NQMom) in fm**2, nuclear magnetic moments (NMagM)
  in nuclear magnetons)

  Atom         1           2           3
 IAtWgt=          16           1           1
 AtmWgt=  15.9949146   1.0078250   1.0078250
 NucSpn=           0           1           1
 AtZEff=   0.0000000   0.0000000   0.0000000
 NQMom=    0.0000000   0.0000000   0.0000000
 NMagM=    0.0000000   2.7928460   2.7928460
 Leave Link  101 at Sat Aug 31 11:08:59 2019, MaxMem=   33554432 cpu:       0.0
 (Enter D:\G09W\l202.exe)
                          Input orientation:                          
 ---------------------------------------------------------------------
 Center     Atomic      Atomic             Coordinates (Angstroms)
 Number     Number       Type             X           Y           Z
 ---------------------------------------------------------------------
      1          8           0        0.000000    0.000000    0.000000
      2          1           0        1.000000    0.000000    0.000000
      3          1           0        0.000000    1.000000    0.000000
 ---------------------------------------------------------------------
                    Distance matrix (angstroms):
                    1          2          3
     1  O    0.000000
     2  H    1.000000   0.000000
     3  H    1.000000   1.414214   0.000000
 Symmetry turned off by external request.
 Stoichiometry    H2O(3+,4)
 Framework group  C2V[C2(O),SGV(H2)]
 Deg. of freedom     2
 Full point group                 C2V     NOp   4
 Rotational constants (GHZ):    564.6475607    501.4551003    265.5892435
 Leave Link  202 at Sat Aug 31 11:08:59 2019, MaxMem=   33554432 cpu:       0.0
 (Enter D:\G09W\l301.exe)
 Standard basis: 6-31G (6D, 7F)
 Ernie: Thresh=  0.10000D-02 Tol=  0.10000D-05 Strict=F.
 Integral buffers will be    262144 words long.
 Raffenetti 2 integral format.
 Two-electron integral symmetry is turned off.
    13 basis functions,    30 primitive gaussians,    13 cartesian basis functions
     5 alpha electrons        2 beta electrons
       nuclear repulsion energy         8.8410201301 Hartrees.
 IExCor=    0 DFT=F Ex=HF Corr=None ExCW=0 ScaHFX=  1.000000
 ScaDFX=  1.000000  1.000000  1.000000  1.000000 ScalE2=  1.000000  1.000000
 IRadAn=      0 IRanWt=     -1 IRanGd=            0 ICorTp=0
 NAtoms=    3 NActive=    3 NUniq=    3 SFac= 1.00D+00 NAtFMM=   50 NAOKFM=F Big=F
 Leave Link  301 at Sat Aug 31 11:08:59 2019, MaxMem=   33554432 cpu:       0.0
 (Enter D:\G09W\l302.exe)
 NPDir=0 NMtPBC=     1 NCelOv=     1 NCel=       1 NClECP=     1 NCelD=      1
         NCelK=      1 NCelE2=     1 NClLst=     1 CellRange=     0.0.
 One-electron integrals computed using PRISM.
 NBasis=    13 RedAO= T  NBF=    13
 NBsUse=    13 1.00D-06 NBFU=    13
 Leave Link  302 at Sat Aug 31 11:09:00 2019, MaxMem=   33554432 cpu:       0.0
 (Enter D:\G09W\l303.exe)
 DipDrv:  MaxL=1.
 Leave Link  303 at Sat Aug 31 11:09:00 2019, MaxMem=   33554432 cpu:       0.0
 (Enter D:\G09W\l401.exe)
 Harris functional with IExCor=  205 diagonalized for initial guess.
 ExpMin= 1.61D-01 ExpMax= 5.48D+03 ExpMxC= 8.25D+02 IAcc=1 IRadAn=         1 AccDes= 0.00D+00
 HarFok:  IExCor=  205 AccDes= 0.00D+00 IRadAn=         1 IDoV= 1
 ScaDFX=  1.000000  1.000000  1.000000  1.000000
 FoFCou: FMM=F IPFlag=           0 FMFlag=      100000 FMFlg1=           0
         NFxFlg=           0 DoJE=T BraDBF=F KetDBF=T FulRan=T
         Omega=  0.000000  0.000000  1.000000  0.000000  0.000000 ICntrl=     500 IOpCl=  0
         NMat0=    1 NMatS0=    1 NMatT0=    0 NMatD0=    1 NMtDS0=    0 NMtDT0=    0
         I1Cent=           4 NGrid=           0.
 Symmetry not used in FoFCou.
 Harris En= -74.6120646663634    
 Initial guess <Sx>= 0.0000 <Sy>= 0.0000 <Sz>= 1.5000 <S**2>= 3.7500 S= 1.5000
 Leave Link  401 at Sat Aug 31 11:09:01 2019, MaxMem=   33554432 cpu:       0.0
 (Enter D:\G09W\l502.exe)
 UHF open shell SCF:
 Requested convergence on RMS density matrix=1.00D-08 within 128 cycles.
 Requested convergence on MAX density matrix=1.00D-06.
 Requested convergence on             energy=1.00D-06.
 No special actions if energy rises.
 Using DIIS extrapolation, IDIIS=  1040.
 Two-electron integral symmetry not used.
 Keep R1 and R2 ints in memory in canonical form, NReq=828096.
 IEnd=       19703 IEndB=       19703 NGot=    33554432 MDV=    33543432
 LenX=    33543432 LenY=    33542550
 Symmetry not used in FoFDir.
 MinBra= 0 MaxBra= 1 Meth= 1.
 IRaf=       0 NMat=   1 IRICut=       1 DoRegI=T DoRafI=F ISym2E= 0 JSym2E=0.

 Cycle   1  Pass 1  IDiag  1:
 E= -72.6973485167933    
 DIIS: error= 2.05D-01 at cycle   1 NSaved=   1.
 NSaved= 1 IEnMin= 1 EnMin= -72.6973485167933     IErMin= 1 ErrMin= 2.05D-01
 ErrMax= 2.05D-01 EMaxC= 1.00D-01 BMatC= 1.56D+00 BMatP= 1.56D+00
 IDIUse=3 WtCom= 0.00D+00 WtEn= 1.00D+00
 Coeff-Com:  0.100D+01
 Coeff-En:   0.100D+01
 Coeff:      0.100D+01
 Gap=     1.513 Goal=   None    Shift=    0.000
 Gap=     1.159 Goal=   None    Shift=    0.000
 GapD=    1.159 DampG=2.000 DampE=0.250 DampFc=0.5000 IDamp=-1.
 Damping current iteration by 5.00D-01
 RMSDP=3.70D-02 MaxDP=2.57D-01              OVMax= 1.96D-01

 Cycle   2  Pass 1  IDiag  1:
 E= -72.8705100278467     Delta-E=       -0.173161511053 Rises=F Damp=T
 DIIS: error= 9.79D-02 at cycle   2 NSaved=   2.
 NSaved= 2 IEnMin= 2 EnMin= -72.8705100278467     IErMin= 2 ErrMin= 9.79D-02
 ErrMax= 9.79D-02 EMaxC= 1.00D-01 BMatC= 3.46D-01 BMatP= 1.56D+00
 IDIUse=3 WtCom= 2.11D-02 WtEn= 9.79D-01
 Coeff-Com: -0.841D+00 0.184D+01
 Coeff-En:   0.000D+00 0.100D+01
 Coeff:     -0.178D-01 0.102D+01
 Gap=     1.463 Goal=   None    Shift=    0.000
 Gap=     1.185 Goal=   None    Shift=    0.000
 RMSDP=1.81D-02 MaxDP=1.26D-01 DE=-1.73D-01 OVMax= 2.60D-02

 Cycle   3  Pass 1  IDiag  1:
 E= -73.0401645299119     Delta-E=       -0.169654502065 Rises=F Damp=F
 DIIS: error= 1.81D-02 at cycle   3 NSaved=   3.
 NSaved= 3 IEnMin= 3 EnMin= -73.0401645299119     IErMin= 3 ErrMin= 1.81D-02
 ErrMax= 1.81D-02 EMaxC= 1.00D-01 BMatC= 1.23D-02 BMatP= 3.46D-01
 IDIUse=3 WtCom= 8.19D-01 WtEn= 1.81D-01
 Coeff-Com:  0.165D+01-0.345D+01 0.279D+01
 Coeff-En:   0.000D+00 0.000D+00 0.100D+01
 Coeff:      0.135D+01-0.282D+01 0.247D+01
 Gap=     1.407 Goal=   None    Shift=    0.000
 Gap=     1.172 Goal=   None    Shift=    0.000
 RMSDP=5.35D-03 MaxDP=6.13D-02 DE=-1.70D-01 OVMax= 5.69D-02

 Cycle   4  Pass 1  IDiag  1:
 E= -73.0449716094768     Delta-E=       -0.004807079565 Rises=F Damp=F
 DIIS: error= 3.48D-03 at cycle   4 NSaved=   4.
 NSaved= 4 IEnMin= 4 EnMin= -73.0449716094768     IErMin= 4 ErrMin= 3.48D-03
 ErrMax= 3.48D-03 EMaxC= 1.00D-01 BMatC= 2.83D-04 BMatP= 1.23D-02
 IDIUse=3 WtCom= 9.65D-01 WtEn= 3.48D-02
 Coeff-Com:  0.961D-01-0.212D+00 0.105D+00 0.101D+01
 Coeff-En:   0.000D+00 0.000D+00 0.000D+00 0.100D+01
 Coeff:      0.927D-01-0.205D+00 0.102D+00 0.101D+01
 Gap=     1.413 Goal=   None    Shift=    0.000
 Gap=     1.164 Goal=   None    Shift=    0.000
 RMSDP=6.11D-04 MaxDP=4.15D-03 DE=-4.81D-03 OVMax= 8.70D-03

 Cycle   5  Pass 1  IDiag  1:
 E= -73.0451200774147     Delta-E=       -0.000148467938 Rises=F Damp=F
 DIIS: error= 1.29D-03 at cycle   5 NSaved=   5.
 NSaved= 5 IEnMin= 5 EnMin= -73.0451200774147     IErMin= 5 ErrMin= 1.29D-03
 ErrMax= 1.29D-03 EMaxC= 1.00D-01 BMatC= 3.50D-05 BMatP= 2.83D-04
 IDIUse=3 WtCom= 9.87D-01 WtEn= 1.29D-02
 Coeff-Com:  0.983D-03 0.229D-02 0.257D-02-0.568D+00 0.156D+01
 Coeff-En:   0.000D+00 0.000D+00 0.000D+00 0.000D+00 0.100D+01
 Coeff:      0.971D-03 0.226D-02 0.253D-02-0.561D+00 0.156D+01
 Gap=     1.413 Goal=   None    Shift=    0.000
 Gap=     1.163 Goal=   None    Shift=    0.000
 RMSDP=3.14D-04 MaxDP=1.95D-03 DE=-1.48D-04 OVMax= 4.75D-03

 Cycle   6  Pass 1  IDiag  1:
 E= -73.0451421362143     Delta-E=       -0.000022058800 Rises=F Damp=F
 DIIS: error= 1.15D-04 at cycle   6 NSaved=   6.
 NSaved= 6 IEnMin= 6 EnMin= -73.0451421362143     IErMin= 6 ErrMin= 1.15D-04
 ErrMax= 1.15D-04 EMaxC= 1.00D-01 BMatC= 4.99D-07 BMatP= 3.50D-05
 IDIUse=3 WtCom= 9.99D-01 WtEn= 1.15D-03
 Coeff-Com: -0.336D-02 0.580D-02-0.515D-02 0.203D+00-0.617D+00 0.142D+01
 Coeff-En:   0.000D+00 0.000D+00 0.000D+00 0.000D+00 0.000D+00 0.100D+01
 Coeff:     -0.335D-02 0.579D-02-0.515D-02 0.203D+00-0.616D+00 0.142D+01
 Gap=     1.413 Goal=   None    Shift=    0.000
 Gap=     1.164 Goal=   None    Shift=    0.000
 RMSDP=3.32D-05 MaxDP=1.71D-04 DE=-2.21D-05 OVMax= 4.21D-04

 Cycle   7  Pass 1  IDiag  1:
 E= -73.0451423780397     Delta-E=       -0.000000241825 Rises=F Damp=F
 DIIS: error= 2.23D-05 at cycle   7 NSaved=   7.
 NSaved= 7 IEnMin= 7 EnMin= -73.0451423780397     IErMin= 7 ErrMin= 2.23D-05
 ErrMax= 2.23D-05 EMaxC= 1.00D-01 BMatC= 1.41D-08 BMatP= 4.99D-07
 IDIUse=1 WtCom= 1.00D+00 WtEn= 0.00D+00
 Coeff-Com:  0.144D-02-0.282D-02 0.220D-02-0.474D-01 0.151D+00-0.455D+00
 Coeff-Com:  0.135D+01
 Coeff:      0.144D-02-0.282D-02 0.220D-02-0.474D-01 0.151D+00-0.455D+00
 Coeff:      0.135D+01
 Gap=     1.413 Goal=   None    Shift=    0.000
 Gap=     1.164 Goal=   None    Shift=    0.000
 RMSDP=5.29D-06 MaxDP=2.51D-05 DE=-2.42D-07 OVMax= 5.18D-05

 Cycle   8  Pass 1  IDiag  1:
 E= -73.0451423837229     Delta-E=       -0.000000005683 Rises=F Damp=F
 DIIS: error= 3.69D-06 at cycle   8 NSaved=   8.
 NSaved= 8 IEnMin= 8 EnMin= -73.0451423837229     IErMin= 8 ErrMin= 3.69D-06
 ErrMax= 3.69D-06 EMaxC= 1.00D-01 BMatC= 4.04D-10 BMatP= 1.41D-08
 IDIUse=1 WtCom= 1.00D+00 WtEn= 0.00D+00
 Coeff-Com: -0.177D-04 0.442D-04 0.594D-04 0.398D-02-0.157D-01 0.670D-01
 Coeff-Com: -0.360D+00 0.130D+01
 Coeff:     -0.177D-04 0.442D-04 0.594D-04 0.398D-02-0.157D-01 0.670D-01
 Coeff:     -0.360D+00 0.130D+01
 Gap=     1.413 Goal=   None    Shift=    0.000
 Gap=     1.164 Goal=   None    Shift=    0.000
 RMSDP=1.01D-06 MaxDP=4.14D-06 DE=-5.68D-09 OVMax= 7.34D-06

 Cycle   9  Pass 1  IDiag  1:
 E= -73.0451423839009     Delta-E=       -0.000000000178 Rises=F Damp=F
 DIIS: error= 3.42D-07 at cycle   9 NSaved=   9.
 NSaved= 9 IEnMin= 9 EnMin= -73.0451423839009     IErMin= 9 ErrMin= 3.42D-07
 ErrMax= 3.42D-07 EMaxC= 1.00D-01 BMatC= 3.10D-12 BMatP= 4.04D-10
 IDIUse=1 WtCom= 1.00D+00 WtEn= 0.00D+00
 Coeff-Com: -0.176D-04 0.335D-04-0.461D-04-0.364D-03 0.176D-02-0.917D-02
 Coeff-Com:  0.553D-01-0.272D+00 0.122D+01
 Coeff:     -0.176D-04 0.335D-04-0.461D-04-0.364D-03 0.176D-02-0.917D-02
 Coeff:      0.553D-01-0.272D+00 0.122D+01
 Gap=     1.413 Goal=   None    Shift=    0.000
 Gap=     1.164 Goal=   None    Shift=    0.000
 RMSDP=8.32D-08 MaxDP=5.78D-07 DE=-1.78D-10 OVMax= 7.68D-07

 Cycle  10  Pass 1  IDiag  1:
 E= -73.0451423839022     Delta-E=       -0.000000000001 Rises=F Damp=F
 DIIS: error= 4.76D-08 at cycle  10 NSaved=  10.
 NSaved=10 IEnMin=10 EnMin= -73.0451423839022     IErMin=10 ErrMin= 4.76D-08
 ErrMax= 4.76D-08 EMaxC= 1.00D-01 BMatC= 5.19D-14 BMatP= 3.10D-12
 IDIUse=1 WtCom= 1.00D+00 WtEn= 0.00D+00
 Coeff-Com:  0.476D-06-0.725D-06 0.325D-05 0.898D-04-0.357D-03 0.170D-02
 Coeff-Com: -0.906D-02 0.491D-01-0.289D+00 0.125D+01
 Coeff:      0.476D-06-0.725D-06 0.325D-05 0.898D-04-0.357D-03 0.170D-02
 Coeff:     -0.906D-02 0.491D-01-0.289D+00 0.125D+01
 Gap=     1.413 Goal=   None    Shift=    0.000
 Gap=     1.164 Goal=   None    Shift=    0.000
 RMSDP=1.12D-08 MaxDP=8.71D-08 DE=-1.35D-12 OVMax= 6.55D-08

 Cycle  11  Pass 1  IDiag  1:
 E= -73.0451423839022     Delta-E=        0.000000000000 Rises=F Damp=F
 DIIS: error= 2.43D-09 at cycle  11 NSaved=  11.
 NSaved=11 IEnMin=10 EnMin= -73.0451423839022     IErMin=11 ErrMin= 2.43D-09
 ErrMax= 2.43D-09 EMaxC= 1.00D-01 BMatC= 3.69D-16 BMatP= 5.19D-14
 IDIUse=1 WtCom= 1.00D+00 WtEn= 0.00D+00
 Coeff-Com:  0.401D-07-0.905D-07-0.176D-06-0.101D-04 0.376D-04-0.185D-03
 Coeff-Com:  0.896D-03-0.524D-02 0.334D-01-0.187D+00 0.116D+01
 Coeff:      0.401D-07-0.905D-07-0.176D-06-0.101D-04 0.376D-04-0.185D-03
 Coeff:      0.896D-03-0.524D-02 0.334D-01-0.187D+00 0.116D+01
 Gap=     1.413 Goal=   None    Shift=    0.000
 Gap=     1.164 Goal=   None    Shift=    0.000
 RMSDP=7.65D-10 MaxDP=2.83D-09 DE= 4.26D-14 OVMax= 8.40D-09

 SCF Done:  E(UHF) =  -73.0451423839     A.U. after   11 cycles
             Convg  =    0.7652D-09             -V/T =  1.9835
 <Sx>= 0.0000 <Sy>= 0.0000 <Sz>= 1.5000 <S**2>= 3.7531 S= 1.5008
 <L.S>= 0.000000000000E+00
 KE= 7.427106892316D+01 PE=-1.801452483794D+02 EE= 2.398801694224D+01
 Annihilation of the first spin contaminant:
 S**2 before annihilation     3.7531,   after     3.7500
 Leave Link  502 at Sat Aug 31 11:09:02 2019, MaxMem=   33554432 cpu:       1.0
 (Enter D:\G09W\l801.exe)
 Range of M.O.s used for correlation:     1    13
 NBasis=    13 NAE=     5 NBE=     2 NFC=     0 NFV=     0
 NROrb=     13 NOA=     5 NOB=     2 NVA=     8 NVB=    11
 Leave Link  801 at Sat Aug 31 11:09:02 2019, MaxMem=   33554432 cpu:       0.0
 (Enter D:\G09W\l906.exe)
 FulOut=F Deriv=F AODrv=F NAtomX=     3
   MMem=       12527  MDisk=           5 MDiskD=           5
  W3Min=        1430 MinDsk=       52048 NBas6D=          13
 NBas2D=         103    NTT=          91    LW2=     2000000
    MDV=    33549883 MDiskM=       25280 NBas2p=         103
 Fully in-core method, ICMem=     6015874.
 IMap=   1   2   3   4   5
 JobTyp=2 Pass  1 fully in-core, NPsUse=  1.
 Compute canonical integrals, IntTyp=   4.
 Symmetry not used in FoFDir.
 MinBra= 0 MaxBra= 1 Meth= 1.
 IRaf=       0 NMat=   1 IRICut=       1 DoRegI=T DoRafI=F ISym2E= 0 JSym2E=0.
 IMap=   1   2
 JobTyp=3 Pass  1 fully in-core, NPsUse=  1.
 Compute canonical integrals, IntTyp=   4.
 Spin components of T(2) and E(2):
     alpha-alpha T2 =       0.1867955521D-02 E2=     -0.7949587175D-02
     alpha-beta  T2 =       0.4408901874D-02 E2=     -0.1848476978D-01
     beta-beta   T2 =       0.1379783431D-05 E2=     -0.3283579919D-04
 The integrals were generated   2 times.
 (S**2,0)=  0.37531D+01           (S**2,1)=  0.37504D+01
 E(PUHF)=      -0.73046146318D+02        E(PMP2)=      -0.73072180589D+02
 ANorm=    0.1003134207D+01
 E2 =    -0.2646719276D-01 EUMP2 =    -0.73071609576661D+02
 Leave Link  906 at Sat Aug 31 11:09:02 2019, MaxMem=   33554432 cpu:       0.0
 (Enter D:\G09W\l601.exe)
 Copying SCF densities to generalized density rwf, IOpCl= 1 IROHF=0.

 **********************************************************************

            Population analysis using the SCF density.

 **********************************************************************

 Alpha  occ. eigenvalues --  -22.49750  -3.15664  -2.44480  -2.41877  -2.34655
 Alpha virt. eigenvalues --   -0.93318  -0.90226  -0.28360  -0.27006  -0.21967
 Alpha virt. eigenvalues --   -0.07649  -0.05058   0.35542
  Beta  occ. eigenvalues --  -22.35044  -2.68345
  Beta virt. eigenvalues --   -1.51970  -1.38295  -1.30482  -0.85488  -0.75273
  Beta virt. eigenvalues --   -0.17465  -0.11018  -0.09307   0.01713   0.09214
  Beta virt. eigenvalues --    0.42929
          Condensed to atoms (all electrons):
              1          2          3
     1  O    6.610749   0.075561   0.075561
     2  H    0.075561   0.043505  -0.000001
     3  H    0.075561  -0.000001   0.043505
 Mulliken atomic charges:
              1
     1  O    1.238129
     2  H    0.880936
     3  H    0.880936
 Sum of Mulliken atomic charges =   3.00000
 Mulliken charges with hydrogens summed into heavy atoms:
              1
     1  O    3.000000
 Sum of Mulliken charges with hydrogens summed into heavy atoms =   3.00000
          Atomic-Atomic Spin Densities.
              1          2          3
     1  O    2.803287   0.036267   0.036267
     2  H    0.036267   0.024519   0.001303
     3  H    0.036267   0.001303   0.024519
 Mulliken atomic spin densities:
              1
     1  O    2.875822
     2  H    0.062089
     3  H    0.062089
 Sum of Mulliken atomic spin densities =   3.00000
 Electronic spatial extent (au):  <R**2>=              7.5498
 Charge=              3.0000 electrons
 Dipole moment (field-independent basis, Debye):
    X=              3.4363    Y=              3.4363    Z=              0.0000  Tot=              4.8597
 Quadrupole moment (field-independent basis, Debye-Ang):
   XX=              1.1959   YY=              1.1959   ZZ=             -2.9402
   XY=             -0.0603   XZ=              0.0000   YZ=              0.0000
 Traceless Quadrupole moment (field-independent basis, Debye-Ang):
   XX=              1.3787   YY=              1.3787   ZZ=             -2.7574
   XY=             -0.0603   XZ=              0.0000   YZ=              0.0000
 Octapole moment (field-independent basis, Debye-Ang**2):
  XXX=              3.7661  YYY=              3.7661  ZZZ=              0.0000  XYY=             -0.1454
  XXY=             -0.1454  XXZ=              0.0000  XZZ=             -0.1407  YZZ=             -0.1407
  YYZ=              0.0000  XYZ=              0.0000
 Hexadecapole moment (field-independent basis, Debye-Ang**3):
 XXXX=              2.6205 YYYY=              2.6205 ZZZZ=             -1.3099 XXXY=             -0.0295
 XXXZ=              0.0000 YYYX=             -0.0295 YYYZ=              0.0000 ZZZX=              0.0000
 ZZZY=              0.0000 XXYY=             -0.5521 XXZZ=             -0.4939 YYZZ=             -0.4939
 XXYZ=              0.0000 YYXZ=              0.0000 ZZXY=             -0.0089
 N-N= 8.841020130083D+00 E-N=-2.534088761335D+02  KE= 1.064588021698D+02
 Leave Link  601 at Sat Aug 31 11:09:02 2019, MaxMem=   33554432 cpu:       0.0
 (Enter D:\G09W\l9999.exe)
 1|1|UNPC-DESKTOP-8BRL880|SP|UMP2-Full|6-31G|H2O1(3+,4)|AJZ34|31-Aug-20
 19|0||#p UMP2(Full)/6-31G nosymm||H2O||3,4|O,0,0.,0.,0.|H,0,1.,0.,0.|H
 ,0,0.,1.,0.||Version=IA32W-G09RevB.01|HF=-73.0451424|MP2=-73.0716096|P
 UHF=-73.0461463|PMP2-0=-73.0721806|S2=3.753082|S2-1=3.750424|S2A=3.75|
 RMSD=7.652e-010|PG=C02V [C2(O1),SGV(H2)]||@


 DESK:  A WASTEBASKET WITH DRAWERS.
 Job cpu time:  0 days  0 hours  0 minutes  3.0 seconds.
 File lengths (MBytes):  RWF=      5 Int=      0 D2E=      0 Chk=      1 Scr=      1
 Normal termination of Gaussian 09 at Sat Aug 31 11:09:02 2019.
