 Entering Gaussian System, Link 0=/share/apps/gaussian/G09D01S/g09/g09
 Initial command:
 /share/apps/gaussian/G09D01S/g09/l1.exe "/scratch/scr/zyzhu/xc02n14/202106271154.20339/Gau-20360.inp" -scrdir="/scratch/scr/zyzhu/xc02n14/202106271154.20339/"
 Entering Link 1 = /share/apps/gaussian/G09D01S/g09/l1.exe PID=     20361.
  
 Copyright (c) 1988,1990,1992,1993,1995,1998,2003,2009,2013,
            Gaussian, Inc.  All Rights Reserved.
  
 This is part of the Gaussian(R) 09 program.  It is based on
 the Gaussian(R) 03 system (copyright 2003, Gaussian, Inc.),
 the Gaussian(R) 98 system (copyright 1998, Gaussian, Inc.),
 the Gaussian(R) 94 system (copyright 1995, Gaussian, Inc.),
 the Gaussian 92(TM) system (copyright 1992, Gaussian, Inc.),
 the Gaussian 90(TM) system (copyright 1990, Gaussian, Inc.),
 the Gaussian 88(TM) system (copyright 1988, Gaussian, Inc.),
 the Gaussian 86(TM) system (copyright 1986, Carnegie Mellon
 University), and the Gaussian 82(TM) system (copyright 1983,
 Carnegie Mellon University). Gaussian is a federally registered
 trademark of Gaussian, Inc.
  
 This software contains proprietary and confidential information,
 including trade secrets, belonging to Gaussian, Inc.
  
 This software is provided under written license and may be
 used, copied, transmitted, or stored only in accord with that
 written license.
  
 The following legend is applicable only to US Government
 contracts under FAR:
  
                    RESTRICTED RIGHTS LEGEND
  
 Use, reproduction and disclosure by the US Government is
 subject to restrictions as set forth in subparagraphs (a)
 and (c) of the Commercial Computer Software - Restricted
 Rights clause in FAR 52.227-19.
  
 Gaussian, Inc.
 340 Quinnipiac St., Bldg. 40, Wallingford CT 06492
  
  
 ---------------------------------------------------------------
 Warning -- This program may not be used in any manner that
 competes with the business of Gaussian, Inc. or will provide
 assistance to any competitor of Gaussian, Inc.  The licensee
 of this program is prohibited from giving any competitor of
 Gaussian, Inc. access to this program.  By using this program,
 the user acknowledges that Gaussian, Inc. is engaged in the
 business of creating and licensing software in the field of
 computational chemistry and represents and warrants to the
 licensee that it is not a competitor of Gaussian, Inc. and that
 it will not use this program in any manner prohibited above.
 ---------------------------------------------------------------
  

 Cite this work as:
 Gaussian 09, Revision D.01,
 M. J. Frisch, G. W. Trucks, H. B. Schlegel, G. E. Scuseria, 
 M. A. Robb, J. R. Cheeseman, G. Scalmani, V. Barone, B. Mennucci, 
 G. A. Petersson, H. Nakatsuji, M. Caricato, X. Li, H. P. Hratchian, 
 A. F. Izmaylov, J. Bloino, G. Zheng, J. L. Sonnenberg, M. Hada, 
 M. Ehara, K. Toyota, R. Fukuda, J. Hasegawa, M. Ishida, T. Nakajima, 
 Y. Honda, O. Kitao, H. Nakai, T. Vreven, J. A. Montgomery, Jr., 
 J. E. Peralta, F. Ogliaro, M. Bearpark, J. J. Heyd, E. Brothers, 
 K. N. Kudin, V. N. Staroverov, T. Keith, R. Kobayashi, J. Normand, 
 K. Raghavachari, A. Rendell, J. C. Burant, S. S. Iyengar, J. Tomasi, 
 M. Cossi, N. Rega, J. M. Millam, M. Klene, J. E. Knox, J. B. Cross, 
 V. Bakken, C. Adamo, J. Jaramillo, R. Gomperts, R. E. Stratmann, 
 O. Yazyev, A. J. Austin, R. Cammi, C. Pomelli, J. W. Ochterski, 
 R. L. Martin, K. Morokuma, V. G. Zakrzewski, G. A. Voth, 
 P. Salvador, J. J. Dannenberg, S. Dapprich, A. D. Daniels, 
 O. Farkas, J. B. Foresman, J. V. Ortiz, J. Cioslowski, 
 and D. J. Fox, Gaussian, Inc., Wallingford CT, 2013.
 
 ******************************************
 Gaussian 09:  ES64L-G09RevD.01 24-Apr-2013
                27-Jun-2021 
 ******************************************
 %nproc=4
 Will use up to    4 processors via shared memory.
 -------------------------------------------------------
 #t Freq(Anharmonic) NoSymm Temperature=2500 IOp(7/33=3)
 -------------------------------------------------------
 ----------
 [No Title]
 ----------
 Symbolic Z-matrix:
 Charge =  0 Multiplicity = 1
 N                     0.        0.        0. 
 H                     0.        0.        0.94 
 H                     1.00687   0.       -0.2604 
 H                    -1.03711  -0.27789  -0.64005 
 
 Numerical evaluation of third derivatives.
 Nuclear step= 0.010000 Angstroms, electric field step= 0.000333 atomic units, NStep=1.

 GradGradGradGradGradGradGradGradGradGradGradGradGradGradGradGradGradGrad
 Initialization pass.
 Number of steps in this run=      2 maximum allowed number of steps=      2.
 GradGradGradGradGradGradGradGradGradGradGradGradGradGradGradGradGradGrad

                    Distance matrix (angstroms):
                    1          2          3          4
     1  N    0.000000
     2  H    0.940000   0.000000
     3  H    1.040000   1.566762   0.000000
     4  H    1.250000   1.910341   2.097440   0.000000
 Symmetry turned off by external request.
 Framework group  C1[X(H3N)]
 Deg. of freedom     6
 Rotational constants (GHZ):    415.9837803    214.4587322    143.1803681
     8 basis functions,    24 primitive gaussians,     8 cartesian basis functions
     5 alpha electrons        5 beta electrons
       nuclear repulsion energy        11.3328979917 Hartrees.
 NAtoms=    4 NActive=    4 NUniq=    4 SFac= 1.00D+00 NAtFMM=   60 NAOKFM=F Big=F
 ExpMin= 1.69D-01 ExpMax= 9.91D+01 ExpMxC= 9.91D+01 IAcc=1 IRadAn=         1 AccDes= 0.00D+00
 Harris functional with IExCor=  205 and IRadAn=       1 diagonalized for initial guess.
 HarFok:  IExCor=  205 AccDes= 0.00D+00 IRadAn=         1 IDoV= 1 UseB2=F ITyADJ=14
 ICtDFT=  3500011 ScaDFX=  1.000000  1.000000  1.000000  1.000000
 FoFCou: FMM=F IPFlag=           0 FMFlag=      100000 FMFlg1=           0
         NFxFlg=           0 DoJE=T BraDBF=F KetDBF=T FulRan=T
         wScrn=  0.000000 ICntrl=     500 IOpCl=  0 I1Cent=   200000004 NGrid=           0
         NMat0=    1 NMatS0=      1 NMatT0=    0 NMatD0=    1 NMtDS0=    0 NMtDT0=    0
 Symmetry not used in FoFCou.
 SCF Done:  E(RHF) =  -55.3753154186     A.U. after   10 cycles
            NFock= 10  Conv=0.55D-08     -V/T= 2.0065
 NROrb=      8 NOA=     5 NOB=     5 NVA=     3 NVB=     3
 Symmetrizing basis deriv contribution to polar:
 IMax=3 JMax=2 DiffMx= 0.00D+00
 Calling FoFCou, ICntrl=  3107 FMM=F I1Cent=   0 AccDes= 0.00D+00.
 End of G2Drv F.D. properties file   721 does not exist.
 End of G2Drv F.D. properties file   722 does not exist.
 End of G2Drv F.D. properties file   788 does not exist.
          IDoAtm=1111
 End of Minotr F.D. properties file   721 does not exist.
 End of Minotr F.D. properties file   722 does not exist.
 End of Minotr F.D. properties file   788 does not exist.

 **********************************************************************

            Population analysis using the SCF density.

 **********************************************************************

 Alpha  occ. eigenvalues --  -15.25579  -1.02528  -0.54604  -0.52463  -0.30104
 Alpha virt. eigenvalues --    0.42903   0.73757   0.83504
          Condensed to atoms (all electrons):
 Mulliken charges:
               1
     1  N   -0.492232
     2  H    0.174705
     3  H    0.162387
     4  H    0.155139
 Sum of Mulliken charges =  -0.00000
 Mulliken charges with hydrogens summed into heavy atoms:
               1
     1  N   -0.000000
 APT charges:
               1
     1  N   -0.484867
     2  H    0.130378
     3  H    0.158291
     4  H    0.196198
 Sum of APT charges =   0.00000
 APT charges with hydrogens summed into heavy atoms:
               1
     1  N    0.000000
 Electronic spatial extent (au):  <R**2>=             26.1625
 Charge=              0.0000 electrons
 Dipole moment (field-independent basis, Debye):
    X=             -0.0136    Y=             -0.5228    Z=              0.0732  Tot=              0.5281
  Exact polarizability:   8.227   1.043   0.716   1.817   0.584   4.932
 Approx polarizability:   6.432   0.856   0.469   1.467   0.485   3.794
 GetPCM: File not found, return IValue=0.
 Pair potential:
 LT D matrices:
                1             2             3             4             5 
      1  0.207505D+01
      2 -0.283892D+00  0.119237D+01
      3  0.669484D-02 -0.538887D-01  0.674045D+00
      4 -0.331159D-01  0.171456D+00 -0.151387D+00  0.194426D+01
      5  0.590781D-02 -0.712106D-01 -0.160022D-02 -0.119335D+00  0.708016D+00
      6 -0.842473D-01  0.184342D+00 -0.689287D-01 -0.245623D-01  0.583029D+00
      7 -0.833510D-01  0.233177D+00  0.524323D+00 -0.437363D-01 -0.254569D+00
      8 -0.897879D-01  0.329407D+00 -0.439863D+00 -0.180687D+00 -0.328907D+00
                6             7             8 
      6  0.535622D+00
      7 -0.211537D+00  0.551596D+00
      8 -0.179513D+00 -0.168701D+00  0.570959D+00
 PT:          0:
                1             2             3             4             5 
      1  0.207505D+01
      2 -0.283892D+00  0.119237D+01
      3  0.669484D-02 -0.538887D-01  0.674045D+00
      4 -0.331159D-01  0.171456D+00 -0.151387D+00  0.194426D+01
      5  0.590781D-02 -0.712106D-01 -0.160022D-02 -0.119335D+00  0.708016D+00
      6 -0.842473D-01  0.184342D+00 -0.689287D-01 -0.245623D-01  0.583029D+00
      7 -0.833510D-01  0.233177D+00  0.524323D+00 -0.437363D-01 -0.254569D+00
      8 -0.897879D-01  0.329407D+00 -0.439863D+00 -0.180687D+00 -0.328907D+00
                6             7             8 
      6  0.535622D+00
      7 -0.211537D+00  0.551596D+00
      8 -0.179513D+00 -0.168701D+00  0.570959D+00
 WT:          0:
                1             2             3             4             5 
      1  0.302165D+02
      2  0.593565D+00  0.119835D+01
      3  0.393112D-01  0.190050D-01  0.356447D+00
      4 -0.244301D-01  0.236130D-01 -0.335208D-01  0.587997D+00
      5  0.577610D-01  0.286697D-01 -0.734448D-02 -0.281976D-01  0.385179D+00
      6 -0.314806D+00  0.247962D+00 -0.325050D-01 -0.703987D-02  0.330592D+00
      7 -0.266326D+00  0.246986D+00  0.288875D+00 -0.118362D-01 -0.130322D+00
      8 -0.194665D+00  0.254645D+00 -0.227456D+00 -0.734389D-01 -0.165886D+00
                6             7             8 
      6  0.335530D+00
      7 -0.813171D-01  0.328157D+00
      8 -0.701554D-01 -0.691285D-01  0.311254D+00
 FFX after V2NN 
                1             2             3             4             5 
      1  0.000000D+00
      2  0.000000D+00  0.000000D+00
      3  0.000000D+00  0.000000D+00  0.000000D+00
      4  0.000000D+00  0.000000D+00  0.000000D+00  0.987699D+00
      5  0.000000D+00  0.000000D+00  0.000000D+00  0.293886D+00 -0.262337D+01
      6  0.000000D+00  0.000000D+00  0.000000D+00  0.628763D-02  0.181371D+00
      7  0.000000D+00  0.000000D+00  0.000000D+00  0.124887D+01  0.000000D+00
      8  0.000000D+00  0.000000D+00  0.000000D+00  0.000000D+00  0.124887D+01
      9  0.000000D+00  0.000000D+00  0.000000D+00  0.000000D+00  0.000000D+00
     10  0.000000D+00  0.000000D+00  0.000000D+00 -0.167087D+01  0.000000D+00
     11  0.000000D+00  0.000000D+00  0.000000D+00  0.000000D+00  0.922149D+00
     12  0.000000D+00  0.000000D+00  0.000000D+00  0.670599D+00  0.000000D+00
     13  0.000000D+00  0.000000D+00  0.000000D+00 -0.565702D+00 -0.293886D+00
     14  0.000000D+00  0.000000D+00  0.000000D+00 -0.293886D+00  0.452348D+00
     15  0.000000D+00  0.000000D+00  0.000000D+00 -0.676887D+00 -0.181371D+00
                6             7             8             9            10 
      6  0.163567D+01
      7  0.000000D+00 -0.124213D+01
      8  0.000000D+00  0.503589D-02 -0.130731D+01
      9 -0.249774D+01 -0.282795D-01  0.767223D-02  0.254943D+01
     10  0.670599D+00 -0.920792D-02  0.000000D+00  0.569126D-01  0.170977D+01
     11  0.000000D+00  0.000000D+00  0.385296D-01  0.000000D+00  0.622064D-02
     12  0.748720D+00  0.569126D-01  0.000000D+00 -0.293217D-01 -0.719013D+00
     13 -0.676887D+00  0.246129D-02 -0.503589D-02 -0.286331D-01 -0.296949D-01
     14 -0.181371D+00 -0.503589D-02  0.199061D-01 -0.767223D-02 -0.622064D-02
     15  0.113354D+00 -0.286331D-01 -0.767223D-02 -0.223674D-01 -0.849864D-02
               11            12            13            14            15 
     11 -0.975892D+00
     12  0.115545D-02 -0.733880D+00
     13 -0.622064D-02 -0.849864D-02  0.592935D+00
     14  0.152139D-01 -0.115545D-02  0.305142D+00 -0.487468D+00
     15 -0.115545D-02  0.144810D-01  0.714018D+00  0.190199D+00 -0.105468D+00
 Entering OneElI...
 OneElI was handed    33554150 working-precision words.
 Calculate overlap and kinetic energy integrals
    NBasis =   8  MinDer = 2  MaxDer = 2
 Requested accuracy = 0.1000D-12
 ShPair: Thresh= 1.00D-13 NBox=     0 BxSize= 0.00D+00 RnKept= 3.96D+00
         NSMCal=                   15 NSMKep=                  15
 PrsmSu:  NPrtUS=   4 ThrOK=T IAlg=1 NPAlg=1 LenDen=           0.
 Prism:   IPart=     0 DynPar=F LinDyn=F Incr=           1.
 PRISM was handed     8386390 working-precision words and    15 shell-pairs
 PRISM was handed     8386390 working-precision words and    15 shell-pairs
 PRISM was handed     8386390 working-precision words and    15 shell-pairs
 PRISM was handed     8386390 working-precision words and    15 shell-pairs
 IPart=  3 NShTot=           3 NBatch=           2 AvBLen=         1.5
 IPart=  2 NShTot=           3 NBatch=           2 AvBLen=         1.5
 IPart=  1 NShTot=           4 NBatch=           2 AvBLen=         2.0
 IPart=  0 NShTot=           5 NBatch=           3 AvBLen=         1.7
 PrSmSu:  NxtVal=              5.
 FFX after D2ST 
                1             2             3             4             5 
      1  0.000000D+00
      2  0.000000D+00  0.000000D+00
      3  0.000000D+00  0.000000D+00  0.000000D+00
      4  0.000000D+00  0.000000D+00  0.000000D+00  0.907478D+00
      5  0.000000D+00  0.000000D+00  0.000000D+00  0.461011D+00 -0.409542D+01
      6  0.000000D+00  0.000000D+00  0.000000D+00  0.275765D+00  0.276381D+00
      7  0.000000D+00  0.000000D+00  0.000000D+00  0.190554D+01  0.000000D+00
      8  0.000000D+00  0.000000D+00  0.000000D+00  0.000000D+00  0.190554D+01
      9  0.000000D+00  0.000000D+00  0.000000D+00 -0.613451D-01 -0.197149D-01
     10  0.000000D+00  0.000000D+00  0.000000D+00 -0.198152D+01 -0.260993D-01
     11  0.000000D+00  0.000000D+00  0.000000D+00 -0.260993D-01  0.144870D+01
     12  0.000000D+00  0.000000D+00  0.000000D+00  0.806725D+00  0.674973D-02
     13  0.000000D+00  0.000000D+00  0.000000D+00 -0.831497D+00 -0.434911D+00
     14  0.000000D+00  0.000000D+00  0.000000D+00 -0.434911D+00  0.741185D+00
     15  0.000000D+00  0.000000D+00  0.000000D+00 -0.102115D+01 -0.263416D+00
                6             7             8             9            10 
      6  0.110439D+01
      7 -0.613451D-01 -0.191093D+01
      8 -0.197149D-01  0.304181D-02 -0.194399D+01
      9 -0.259983D+01  0.517793D-01  0.243492D-01  0.261893D+01
     10  0.806725D+00  0.993227D-03  0.000000D+00  0.268610D-01  0.199708D+01
     11  0.674973D-02  0.000000D+00  0.235239D-01  0.000000D+00  0.300639D-01
     12  0.126085D+01  0.268610D-01  0.000000D+00 -0.849984D-02 -0.828170D+00
     13 -0.102115D+01  0.439181D-02 -0.304181D-02 -0.172952D-01 -0.165468D-01
     14 -0.263416D+00 -0.304181D-02  0.149289D-01 -0.463422D-02 -0.396464D-02
     15  0.234583D+00 -0.172952D-01 -0.463422D-02 -0.106054D-01 -0.541649D-02
               11            12            13            14            15 
     11 -0.148429D+01
     12 -0.601332D-02 -0.126396D+01
     13 -0.396464D-02 -0.541649D-02  0.843652D+00
     14  0.120752D-01 -0.736409D-03  0.441918D+00 -0.768189D+00
     15 -0.736409D-03  0.116081D-01  0.104386D+01  0.268787D+00 -0.235586D+00
 Entering OneElI...
 OneElI was handed    33554150 working-precision words.
 Calculate potential energy integrals
    NBasis =   8  MinDer = 2  MaxDer = 2
 Requested accuracy = 0.1000D-12
 ShPair: Thresh= 1.00D-13 NBox=     0 BxSize= 0.00D+00 RnKept= 3.96D+00
         NSMCal=                   15 NSMKep=                  15
 PrsmSu:  NPrtUS=   4 ThrOK=T IAlg=1 NPAlg=1 LenDen=           0.
 Prism:   IPart=     0 DynPar=F LinDyn=F Incr=           1.
 PRISM was handed     8386347 working-precision words and    15 shell-pairs
 PRISM was handed     8386347 working-precision words and    15 shell-pairs
 PRISM was handed     8386347 working-precision words and    15 shell-pairs
 PRISM was handed     8386347 working-precision words and    15 shell-pairs
 IPart=  1 NShTot=          16 NBatch=           4 AvBLen=         4.0
 IPart=  2 NShTot=          12 NBatch=           3 AvBLen=         4.0
 IPart=  3 NShTot=          12 NBatch=           3 AvBLen=         4.0
 IPart=  0 NShTot=          20 NBatch=           5 AvBLen=         4.0
 PrSmSu:  NxtVal=              5.
 FFX after D2V 
                1             2             3             4             5 
      1  0.000000D+00
      2  0.000000D+00  0.000000D+00
      3  0.000000D+00  0.000000D+00  0.000000D+00
      4  0.000000D+00  0.000000D+00  0.000000D+00  0.153065D+01
      5  0.000000D+00  0.000000D+00  0.000000D+00 -0.555539D+00  0.547415D+01
      6  0.000000D+00  0.000000D+00  0.000000D+00 -0.112680D+01 -0.299948D+00
      7  0.000000D+00  0.000000D+00  0.000000D+00 -0.222760D+01 -0.161849D-01
      8  0.000000D+00  0.000000D+00  0.000000D+00 -0.137061D-01 -0.211842D+01
      9  0.000000D+00  0.000000D+00  0.000000D+00  0.160583D+00  0.810969D-01
     10  0.000000D+00  0.000000D+00  0.000000D+00  0.147541D+00  0.110768D+00
     11  0.000000D+00  0.000000D+00  0.000000D+00  0.945266D-01 -0.194424D+01
     12  0.000000D+00  0.000000D+00  0.000000D+00 -0.247825D+00 -0.415567D-01
     13  0.000000D+00  0.000000D+00  0.000000D+00  0.549408D+00  0.460956D+00
     14  0.000000D+00  0.000000D+00  0.000000D+00  0.474719D+00 -0.141149D+01
     15  0.000000D+00  0.000000D+00  0.000000D+00  0.121404D+01  0.260408D+00
                6             7             8             9            10 
      6  0.376968D+01
      7  0.225658D+00  0.224434D+01
      8  0.602920D-01  0.230653D-01  0.199515D+01
      9 -0.912968D+00 -0.304959D+00 -0.512282D-01  0.107849D+01
     10 -0.325886D+00 -0.226125D-01 -0.247012D-02  0.241646D+00 -0.531408D-01
     11 -0.338664D-01  0.137511D-02  0.916346D-01 -0.265919D-02 -0.898121D-01
     12 -0.201075D+01  0.123803D+00  0.192509D-02 -0.969758D-01  0.120180D+00
     13  0.122702D+01  0.587182D-02 -0.688906D-02 -0.972697D-01 -0.717881D-01
     14  0.273523D+00 -0.825551D-02  0.316412D-01 -0.272095D-01 -0.184861D-01
     15 -0.845967D+00 -0.445030D-01 -0.109889D-01 -0.685483D-01 -0.359394D-01
               11            12            13            14            15 
     11  0.183389D+01
     12  0.374622D-01  0.208062D+01
     13 -0.608963D-02  0.384218D-02 -0.483492D+00
     14  0.187139D-01  0.216941D-02 -0.447977D+00  0.136113D+01
     15 -0.936593D-03  0.271069D-01 -0.113360D+01 -0.248483D+00  0.887408D+00
 Second derivatives from L701 IAtSt=0:
                1             2             3             4             5 
      1  0.000000D+00
      2  0.000000D+00  0.000000D+00
      3  0.000000D+00  0.000000D+00  0.000000D+00
      4  0.000000D+00  0.000000D+00  0.000000D+00  0.153065D+01
      5  0.000000D+00  0.000000D+00  0.000000D+00 -0.555539D+00  0.547415D+01
      6  0.000000D+00  0.000000D+00  0.000000D+00 -0.112680D+01 -0.299948D+00
      7  0.000000D+00  0.000000D+00  0.000000D+00 -0.222760D+01 -0.161849D-01
      8  0.000000D+00  0.000000D+00  0.000000D+00 -0.137061D-01 -0.211842D+01
      9  0.000000D+00  0.000000D+00  0.000000D+00  0.160583D+00  0.810969D-01
     10  0.000000D+00  0.000000D+00  0.000000D+00  0.147541D+00  0.110768D+00
     11  0.000000D+00  0.000000D+00  0.000000D+00  0.945266D-01 -0.194424D+01
     12  0.000000D+00  0.000000D+00  0.000000D+00 -0.247825D+00 -0.415567D-01
     13  0.000000D+00  0.000000D+00  0.000000D+00  0.549408D+00  0.460956D+00
     14  0.000000D+00  0.000000D+00  0.000000D+00  0.474719D+00 -0.141149D+01
     15  0.000000D+00  0.000000D+00  0.000000D+00  0.121404D+01  0.260408D+00
                6             7             8             9            10 
      6  0.376968D+01
      7  0.225658D+00  0.224434D+01
      8  0.602920D-01  0.230653D-01  0.199515D+01
      9 -0.912968D+00 -0.304959D+00 -0.512282D-01  0.107849D+01
     10 -0.325886D+00 -0.226125D-01 -0.247012D-02  0.241646D+00 -0.531408D-01
     11 -0.338664D-01  0.137511D-02  0.916346D-01 -0.265919D-02 -0.898121D-01
     12 -0.201075D+01  0.123803D+00  0.192509D-02 -0.969758D-01  0.120180D+00
     13  0.122702D+01  0.587182D-02 -0.688906D-02 -0.972697D-01 -0.717881D-01
     14  0.273523D+00 -0.825551D-02  0.316412D-01 -0.272095D-01 -0.184861D-01
     15 -0.845967D+00 -0.445030D-01 -0.109889D-01 -0.685483D-01 -0.359394D-01
               11            12            13            14            15 
     11  0.183389D+01
     12  0.374622D-01  0.208062D+01
     13 -0.608963D-02  0.384218D-02 -0.483492D+00
     14  0.187139D-01  0.216941D-02 -0.447977D+00  0.136113D+01
     15 -0.936593D-03  0.271069D-01 -0.113360D+01 -0.248483D+00  0.887408D+00
 Polarizability into L701:
                1             2             3 
      1  0.822660D+01
      2  0.104277D+01  0.715586D+00
      3  0.181717D+01  0.584010D+00  0.493232D+01
 Polarizability after L701:
                1             2             3 
      1  0.822660D+01
      2  0.104277D+01  0.715586D+00
      3  0.181717D+01  0.584010D+00  0.493232D+01
 Dipole Derivatives into L701:
                 1             2             3             4             5 
      1  -0.150271D+00  0.146292D+00  0.195290D-02  0.143402D-01 -0.627213D-01
      2   0.111711D+00 -0.111774D+01  0.886813D-01 -0.569953D-01  0.375913D+00
      3   0.294819D-02  0.118177D+00 -0.186594D+00 -0.409074D-01  0.170004D-01
                 6             7             8             9            10 
      1   0.250797D-01  0.255612D-01 -0.416049D-02 -0.523939D-01  0.110370D+00
      2  -0.804658D-02 -0.218143D-01  0.379488D+00 -0.540433D-01 -0.329016D-01
      3   0.881980D-03  0.413307D-01 -0.681302D-01  0.698230D-01 -0.337155D-02
                11            12 
      1  -0.794104D-01  0.253613D-01
      2   0.362335D+00 -0.265914D-01
      3  -0.670471D-01  0.115889D+00
 Dipole Derivatives after L701:
                 1             2             3             4             5 
      1  -0.150271D+00  0.146292D+00  0.195290D-02  0.143402D-01 -0.627213D-01
      2   0.111711D+00 -0.111774D+01  0.886813D-01 -0.569953D-01  0.375913D+00
      3   0.294819D-02  0.118177D+00 -0.186594D+00 -0.409074D-01  0.170004D-01
                 6             7             8             9            10 
      1   0.250797D-01  0.255612D-01 -0.416049D-02 -0.523939D-01  0.110370D+00
      2  -0.804658D-02 -0.218143D-01  0.379488D+00 -0.540433D-01 -0.329016D-01
      3   0.881980D-03  0.413307D-01 -0.681302D-01  0.698230D-01 -0.337155D-02
                11            12 
      1  -0.794104D-01  0.253613D-01
      2   0.362335D+00 -0.265914D-01
      3  -0.670471D-01  0.115889D+00
 Hessian into L701:
                1             2             3             4             5 
      1  0.639992D+00
      2  0.842482D-01 -0.782699D-01
      3  0.390947D-01  0.630523D-01  0.592070D+00
      4 -0.680815D-01 -0.721822D-02 -0.469745D-01  0.636901D-01
      5 -0.104585D-01 -0.142700D-01  0.625238D-02 -0.127269D-02  0.624891D-01
      6  0.445818D-01 -0.427912D-01 -0.412506D+00  0.251286D-02  0.105109D-01
      7 -0.350318D+00 -0.421082D-01  0.138876D+00 -0.978771D-02  0.476085D-02
      8 -0.612675D-02  0.309530D-01 -0.170277D-01 -0.127577D-02 -0.233062D-01
      9  0.147826D-01 -0.749790D-03 -0.739015D-01  0.739488D-01 -0.439648D-02
     10 -0.221593D+00 -0.349217D-01 -0.130996D+00  0.141791D-01  0.697030D-02
     11 -0.676629D-01  0.615869D-01 -0.522770D-01  0.976668D-02 -0.249129D-01
     12 -0.984590D-01 -0.195113D-01 -0.105663D+00 -0.294872D-01 -0.123668D-01
                6             7             8             9            10 
      6  0.370427D+00
      7 -0.123586D+00  0.296182D+00
      8  0.633220D-02  0.110891D-01  0.211196D-01
      9  0.687898D-02 -0.645646D-01 -0.101358D-02  0.604217D-01
     10  0.764917D-01  0.639231D-01 -0.368654D-02 -0.241668D-01  0.143491D+00
     11  0.259481D-01  0.262583D-01 -0.287665D-01  0.615985D-02  0.316379D-01
     12  0.351999D-01  0.492748D-01  0.117091D-01  0.660080D-02  0.786714D-01
               11            12 
     11 -0.790755D-02
     12  0.201690D-01  0.638621D-01
 Hessian after L701:
                1             2             3             4             5 
      1  0.217064D+01
      2 -0.471291D+00  0.539588D+01
      3 -0.108770D+01 -0.236896D+00  0.436175D+01
      4 -0.229568D+01 -0.234032D-01  0.178684D+00  0.230803D+01
      5 -0.241646D-01 -0.213269D+01  0.665444D-01  0.217926D-01  0.205763D+01
      6  0.205164D+00  0.383057D-01 -0.132547D+01 -0.302446D+00 -0.407174D-01
      7 -0.202776D+00  0.686601D-01 -0.187010D+00 -0.324002D-01  0.229072D-02
      8  0.883999D-01 -0.191329D+01 -0.508941D-01  0.993386D-04  0.683284D-01
      9 -0.233042D+00 -0.423065D-01 -0.208465D+01  0.197752D+00 -0.247138D-02
     10  0.327815D+00  0.426034D+00  0.109603D+01  0.200509D-01  0.812390D-04
     11  0.407056D+00 -0.134990D+01  0.221246D+00  0.151117D-02  0.672835D-02
     12  0.111558D+01  0.240897D+00 -0.951629D+00 -0.739902D-01 -0.233557D-01
                6             7             8             9            10 
      6  0.144892D+01
      7  0.118059D+00  0.243041D+00
      8  0.367301D-02 -0.787230D-01  0.185501D+01
      9 -0.900969D-01  0.556151D-01  0.364486D-01  0.214104D+01
     10 -0.207780D-01 -0.786500D-02 -0.977617D-02 -0.203246D-01 -0.340001D+00
     11 -0.126138D-02  0.777221D-02 -0.100526D-01  0.832926D-02 -0.416339D+00
     12 -0.333484D-01  0.133354D-01  0.107725D-01  0.337077D-01 -0.105493D+01
               11            12 
     11  0.135322D+01
     12 -0.228314D+00  0.951270D+00
 Leave Link  701 at Sun Jun 27 11:54:42 2021, MaxMem=    33554432 cpu:         0.4
 Leave Link  702 at Sun Jun 27 11:54:42 2021, MaxMem=    33554432 cpu:         0.0
 ICntrl=    100127.
 Calling FoFJK, ICntrl=    100127 FMM=F ISym2X=0 I1Cent= 0 IOpClX= 0 NMat=1 NMatS=1 NMatT=0.
 FoFJK:  IHMeth= 1 ICntrl=  100127 DoSepK=F KAlg= 0 I1Cent=   0 FoldK=F
 IRaf=         0 NMat=   1 IRICut=       1 DoRegI=T DoRafI=F ISym2E= 0.
 FoFCou: FMM=F IPFlag=           0 FMFlag=      100000 FMFlg1=         800
         NFxFlg=           0 DoJE=F BraDBF=F KetDBF=F FulRan=T
         wScrn=  0.000000 ICntrl=  100127 IOpCl=  0 I1Cent=           0 NGrid=           0
         NMat0=    1 NMatS0=      1 NMatT0=    0 NMatD0=    1 NMtDS0=    0 NMtDT0=    0
 Symmetry not used in FoFCou.
 FoFCou:  KetSym=F NOpSet=  1 NOpAb=1 NOp=  1.
 FoFCou:  CnvScl= 1.00D+00 Thresh= 1.00D-10 IAcrcy=      10.
 ShPair: Thresh= 1.00D-10 NBox=     0 BxSize= 0.00D+00 RnKept= 3.96D+00
         NSMCal=                   15 NSMKep=                  15
 PrismS was handed    33550919 working-precision words and    15 shell-pairs
 FoFCou: LinMIO=F DoNuc=F BraDBF=F KetDBF=F HaveP=T PDBF=F HaveZ=T HaveW=F
         NIJTC =       3 NIJTAt=       0 NIJTCD=       0 NIJTT =       3
         IJTBeg=       1 IJTEnd=       3 KLTBeg=       1 KLTEnd=       3
         IPTBeg=       1 IPTEnd=       3 IPTBCv=       1 IPTECv=       3
         IZTBeg=       1 IZTEnd=       3 IZTBCv=       1 IZTECv=       3
         IWTBeg=       4 IWTEnd=       3 IWTBCv=       4 IWTECv=       3
         INTBeg=       1 INTEnd=       0 IFTBCv=       1 IFTECv=       3
 NCel replicated for PrismC:     1
 CoulSu:  IncDef=  1024 NBBP=            120 NTPThr=   100 NPartT=    4 Incr=           1 LDynOK=F.
 CoulSu:  NPrtUS=   4 ThrOK=T IAlg=1 NPAlg=1 LenDen=           0 LWGrdD=           0 DoCopy=F.
 Enter PrismC: JobTyp=22 DoJE=F Cont=F.
 PrismC:  IPart=     0 DynPar=F LinDyn=F Incr=           1 UseFst=F UseS4=T IGathr=2.
 Enter PrismC: JobTyp=22 DoJE=F Cont=F.
 PrismC was handed     8386347 working-precision words and    15 shell-pairs
 PrismC was handed     8386347 working-precision words and    15 shell-pairs
 Enter PrismC: JobTyp=22 DoJE=F Cont=F.
 Enter PrismC: JobTyp=22 DoJE=F Cont=F.
 PrismC was handed     8386347 working-precision words and    15 shell-pairs
 PrismC was handed     8386347 working-precision words and    15 shell-pairs
 IPart=  1 NShTot=          29 NShNF=          29 NShFF=           0 NBatch=           5 AvBLen=         5.8
 IPart=  2 NShTot=          30 NShNF=          30 NShFF=           0 NBatch=           5 AvBLen=         6.0
 IPart=  3 NShTot=          27 NShNF=          27 NShFF=           0 NBatch=           5 AvBLen=         5.4
 IPart=  0 NShTot=          34 NShNF=          34 NShFF=           0 NBatch=           6 AvBLen=         5.7
 CoulSu:  NxtVal=              5.
 Force constants from FoFCou: 
                1             2             3             4             5 
      1  0.000000D+00
      2  0.000000D+00  0.000000D+00
      3  0.000000D+00  0.000000D+00  0.000000D+00
      4  0.000000D+00  0.000000D+00  0.000000D+00 -0.148174D+01
      5  0.000000D+00  0.000000D+00  0.000000D+00  0.520740D+00 -0.547807D+01
      6  0.000000D+00  0.000000D+00  0.000000D+00  0.978772D+00  0.280517D+00
      7  0.000000D+00  0.000000D+00  0.000000D+00  0.224213D+01  0.579538D-02
      8  0.000000D+00  0.000000D+00  0.000000D+00  0.364132D-02  0.221386D+01
      9  0.000000D+00  0.000000D+00  0.000000D+00 -0.181135D+00 -0.580987D-01
     10  0.000000D+00  0.000000D+00  0.000000D+00 -0.291386D+00 -0.871608D-01
     11  0.000000D+00  0.000000D+00  0.000000D+00 -0.855343D-01  0.193472D+01
     12  0.000000D+00  0.000000D+00  0.000000D+00  0.319060D+00  0.286529D-01
                6             7             8             9            10 
      6 -0.316637D+01
      7 -0.189221D+00 -0.226255D+01
      8 -0.555499D-01 -0.924566D-02 -0.212519D+01
      9  0.410760D+00  0.279333D+00  0.442850D-01 -0.527510D+00
     10  0.320743D+00  0.321380D-01  0.219575D-02 -0.130745D+00  0.247030D+00
     11  0.251217D-01 -0.682767D-03 -0.676998D-01  0.295955D-02  0.820721D-01
     12  0.194392D+01 -0.134115D+00 -0.811580D-03  0.820115D-01 -0.189189D+00
               11            12 
     11 -0.185552D+01
     12 -0.256688D-01 -0.200429D+01
 Hessian from J: 
                1             2             3             4             5 
      1  0.000000D+00
      2  0.000000D+00  0.000000D+00
      3  0.000000D+00  0.000000D+00  0.000000D+00
      4  0.000000D+00  0.000000D+00  0.000000D+00 -0.148174D+01
      5  0.000000D+00  0.000000D+00  0.000000D+00  0.520740D+00 -0.547807D+01
      6  0.000000D+00  0.000000D+00  0.000000D+00  0.978772D+00  0.280517D+00
      7  0.000000D+00  0.000000D+00  0.000000D+00  0.224213D+01  0.579538D-02
      8  0.000000D+00  0.000000D+00  0.000000D+00  0.364132D-02  0.221386D+01
      9  0.000000D+00  0.000000D+00  0.000000D+00 -0.181135D+00 -0.580987D-01
     10  0.000000D+00  0.000000D+00  0.000000D+00 -0.291386D+00 -0.871608D-01
     11  0.000000D+00  0.000000D+00  0.000000D+00 -0.855343D-01  0.193472D+01
     12  0.000000D+00  0.000000D+00  0.000000D+00  0.319060D+00  0.286529D-01
     13  0.000000D+00  0.000000D+00  0.000000D+00 -0.469007D+00 -0.439375D+00
     14  0.000000D+00  0.000000D+00  0.000000D+00 -0.438847D+00  0.132950D+01
     15  0.000000D+00  0.000000D+00  0.000000D+00 -0.111670D+01 -0.251071D+00
                6             7             8             9            10 
      6 -0.316637D+01
      7 -0.189221D+00 -0.226255D+01
      8 -0.555499D-01 -0.924566D-02 -0.212519D+01
      9  0.410760D+00  0.279333D+00  0.442850D-01 -0.527510D+00
     10  0.320743D+00  0.321380D-01  0.219575D-02 -0.130745D+00  0.247030D+00
     11  0.251217D-01 -0.682767D-03 -0.676998D-01  0.295955D-02  0.820721D-01
     12  0.194392D+01 -0.134115D+00 -0.811580D-03  0.820115D-01 -0.189189D+00
     13 -0.111029D+01 -0.117233D-01  0.340859D-02  0.325473D-01  0.122181D-01
     14 -0.250089D+00  0.413305D-02 -0.209690D-01  0.108541D-01  0.289293D-02
     15  0.811695D+00  0.440022D-01  0.120765D-01  0.347390D-01 -0.808762D-03
               11            12            13            14            15 
     11 -0.185552D+01
     12 -0.256688D-01 -0.200429D+01
     13  0.414494D-02  0.424380D-02  0.468512D+00
     14 -0.114969D-01 -0.217257D-02  0.431821D+00 -0.129703D+01
     15 -0.241254D-02 -0.216366D-01  0.107350D+01  0.241407D+00 -0.824798D+00
 Force constants from FoF: 
                1             2             3             4             5 
      1  0.000000D+00
      2  0.000000D+00  0.000000D+00
      3  0.000000D+00  0.000000D+00  0.000000D+00
      4  0.000000D+00  0.000000D+00  0.000000D+00 -0.148174D+01
      5  0.000000D+00  0.000000D+00  0.000000D+00  0.520740D+00 -0.547807D+01
      6  0.000000D+00  0.000000D+00  0.000000D+00  0.978772D+00  0.280517D+00
      7  0.000000D+00  0.000000D+00  0.000000D+00  0.224213D+01  0.579538D-02
      8  0.000000D+00  0.000000D+00  0.000000D+00  0.364132D-02  0.221386D+01
      9  0.000000D+00  0.000000D+00  0.000000D+00 -0.181135D+00 -0.580987D-01
     10  0.000000D+00  0.000000D+00  0.000000D+00 -0.291386D+00 -0.871608D-01
     11  0.000000D+00  0.000000D+00  0.000000D+00 -0.855343D-01  0.193472D+01
     12  0.000000D+00  0.000000D+00  0.000000D+00  0.319060D+00  0.286529D-01
     13  0.000000D+00  0.000000D+00  0.000000D+00 -0.469007D+00 -0.439375D+00
     14  0.000000D+00  0.000000D+00  0.000000D+00 -0.438847D+00  0.132950D+01
     15  0.000000D+00  0.000000D+00  0.000000D+00 -0.111670D+01 -0.251071D+00
                6             7             8             9            10 
      6 -0.316637D+01
      7 -0.189221D+00 -0.226255D+01
      8 -0.555499D-01 -0.924566D-02 -0.212519D+01
      9  0.410760D+00  0.279333D+00  0.442850D-01 -0.527510D+00
     10  0.320743D+00  0.321380D-01  0.219575D-02 -0.130745D+00  0.247030D+00
     11  0.251217D-01 -0.682767D-03 -0.676998D-01  0.295955D-02  0.820721D-01
     12  0.194392D+01 -0.134115D+00 -0.811580D-03  0.820115D-01 -0.189189D+00
     13 -0.111029D+01 -0.117233D-01  0.340859D-02  0.325473D-01  0.122181D-01
     14 -0.250089D+00  0.413305D-02 -0.209690D-01  0.108541D-01  0.289293D-02
     15  0.811695D+00  0.440022D-01  0.120765D-01  0.347390D-01 -0.808762D-03
               11            12            13            14            15 
     11 -0.185552D+01
     12 -0.256688D-01 -0.200429D+01
     13  0.414494D-02  0.424380D-02  0.468512D+00
     14 -0.114969D-01 -0.217257D-02  0.431821D+00 -0.129703D+01
     15 -0.241254D-02 -0.216366D-01  0.107350D+01  0.241407D+00 -0.824798D+00
 Second derivatives from L703 IAtSt=0:
                1             2             3             4             5 
      1  0.000000D+00
      2  0.000000D+00  0.000000D+00
      3  0.000000D+00  0.000000D+00  0.000000D+00
      4  0.000000D+00  0.000000D+00  0.000000D+00 -0.148174D+01
      5  0.000000D+00  0.000000D+00  0.000000D+00  0.520740D+00 -0.547807D+01
      6  0.000000D+00  0.000000D+00  0.000000D+00  0.978772D+00  0.280517D+00
      7  0.000000D+00  0.000000D+00  0.000000D+00  0.224213D+01  0.579538D-02
      8  0.000000D+00  0.000000D+00  0.000000D+00  0.364132D-02  0.221386D+01
      9  0.000000D+00  0.000000D+00  0.000000D+00 -0.181135D+00 -0.580987D-01
     10  0.000000D+00  0.000000D+00  0.000000D+00 -0.291386D+00 -0.871608D-01
     11  0.000000D+00  0.000000D+00  0.000000D+00 -0.855343D-01  0.193472D+01
     12  0.000000D+00  0.000000D+00  0.000000D+00  0.319060D+00  0.286529D-01
     13  0.000000D+00  0.000000D+00  0.000000D+00 -0.469007D+00 -0.439375D+00
     14  0.000000D+00  0.000000D+00  0.000000D+00 -0.438847D+00  0.132950D+01
     15  0.000000D+00  0.000000D+00  0.000000D+00 -0.111670D+01 -0.251071D+00
                6             7             8             9            10 
      6 -0.316637D+01
      7 -0.189221D+00 -0.226255D+01
      8 -0.555499D-01 -0.924566D-02 -0.212519D+01
      9  0.410760D+00  0.279333D+00  0.442850D-01 -0.527510D+00
     10  0.320743D+00  0.321380D-01  0.219575D-02 -0.130745D+00  0.247030D+00
     11  0.251217D-01 -0.682767D-03 -0.676998D-01  0.295955D-02  0.820721D-01
     12  0.194392D+01 -0.134115D+00 -0.811580D-03  0.820115D-01 -0.189189D+00
     13 -0.111029D+01 -0.117233D-01  0.340859D-02  0.325473D-01  0.122181D-01
     14 -0.250089D+00  0.413305D-02 -0.209690D-01  0.108541D-01  0.289293D-02
     15  0.811695D+00  0.440022D-01  0.120765D-01  0.347390D-01 -0.808762D-03
               11            12            13            14            15 
     11 -0.185552D+01
     12 -0.256688D-01 -0.200429D+01
     13  0.414494D-02  0.424380D-02  0.468512D+00
     14 -0.114969D-01 -0.217257D-02  0.431821D+00 -0.129703D+01
     15 -0.241254D-02 -0.216366D-01  0.107350D+01  0.241407D+00 -0.824798D+00
 Polarizability into L703:
                1             2             3 
      1  0.822660D+01
      2  0.104277D+01  0.715586D+00
      3  0.181717D+01  0.584010D+00  0.493232D+01
 Polarizability after L703:
                1             2             3 
      1  0.822660D+01
      2  0.104277D+01  0.715586D+00
      3  0.181717D+01  0.584010D+00  0.493232D+01
 Dipole Derivatives into L703:
                 1             2             3             4             5 
      1  -0.150271D+00  0.146292D+00  0.195290D-02  0.143402D-01 -0.627213D-01
      2   0.111711D+00 -0.111774D+01  0.886813D-01 -0.569953D-01  0.375913D+00
      3   0.294819D-02  0.118177D+00 -0.186594D+00 -0.409074D-01  0.170004D-01
                 6             7             8             9            10 
      1   0.250797D-01  0.255612D-01 -0.416049D-02 -0.523939D-01  0.110370D+00
      2  -0.804658D-02 -0.218143D-01  0.379488D+00 -0.540433D-01 -0.329016D-01
      3   0.881980D-03  0.413307D-01 -0.681302D-01  0.698230D-01 -0.337155D-02
                11            12 
      1  -0.794104D-01  0.253613D-01
      2   0.362335D+00 -0.265914D-01
      3  -0.670471D-01  0.115889D+00
 Dipole Derivatives after L703:
                 1             2             3             4             5 
      1  -0.150271D+00  0.146292D+00  0.195290D-02  0.143402D-01 -0.627213D-01
      2   0.111711D+00 -0.111774D+01  0.886813D-01 -0.569953D-01  0.375913D+00
      3   0.294819D-02  0.118177D+00 -0.186594D+00 -0.409074D-01  0.170004D-01
                 6             7             8             9            10 
      1   0.250797D-01  0.255612D-01 -0.416049D-02 -0.523939D-01  0.110370D+00
      2  -0.804658D-02 -0.218143D-01  0.379488D+00 -0.540433D-01 -0.329016D-01
      3   0.881980D-03  0.413307D-01 -0.681302D-01  0.698230D-01 -0.337155D-02
                11            12 
      1  -0.794104D-01  0.253613D-01
      2   0.362335D+00 -0.265914D-01
      3  -0.670471D-01  0.115889D+00
 Hessian into L703:
                1             2             3             4             5 
      1  0.217064D+01
      2 -0.471291D+00  0.539588D+01
      3 -0.108770D+01 -0.236896D+00  0.436175D+01
      4 -0.229568D+01 -0.234032D-01  0.178684D+00  0.230803D+01
      5 -0.241646D-01 -0.213269D+01  0.665444D-01  0.217926D-01  0.205763D+01
      6  0.205164D+00  0.383057D-01 -0.132547D+01 -0.302446D+00 -0.407174D-01
      7 -0.202776D+00  0.686601D-01 -0.187010D+00 -0.324002D-01  0.229072D-02
      8  0.883999D-01 -0.191329D+01 -0.508941D-01  0.993386D-04  0.683284D-01
      9 -0.233042D+00 -0.423065D-01 -0.208465D+01  0.197752D+00 -0.247138D-02
     10  0.327815D+00  0.426034D+00  0.109603D+01  0.200509D-01  0.812390D-04
     11  0.407056D+00 -0.134990D+01  0.221246D+00  0.151117D-02  0.672835D-02
     12  0.111558D+01  0.240897D+00 -0.951629D+00 -0.739902D-01 -0.233557D-01
                6             7             8             9            10 
      6  0.144892D+01
      7  0.118059D+00  0.243041D+00
      8  0.367301D-02 -0.787230D-01  0.185501D+01
      9 -0.900969D-01  0.556151D-01  0.364486D-01  0.214104D+01
     10 -0.207780D-01 -0.786500D-02 -0.977617D-02 -0.203246D-01 -0.340001D+00
     11 -0.126138D-02  0.777221D-02 -0.100526D-01  0.832926D-02 -0.416339D+00
     12 -0.333484D-01  0.133354D-01  0.107725D-01  0.337077D-01 -0.105493D+01
               11            12 
     11  0.135322D+01
     12 -0.228314D+00  0.951270D+00
 Hessian after L703:
                1             2             3             4             5 
      1  0.688903D+00
      2  0.494491D-01 -0.821903D-01
      3 -0.108930D+00  0.436212D-01  0.119538D+01
      4 -0.535497D-01 -0.176078D-01 -0.105368D-01  0.454843D-01
      5 -0.205233D-01  0.811640D-01  0.109945D-01  0.125470D-01 -0.675519D-01
      6  0.240288D-01 -0.197929D-01 -0.914714D+00 -0.231123D-01  0.356764D-02
      7 -0.494162D+00 -0.185007D-01  0.133733D+00 -0.262191D-03  0.448647D-02
      8  0.286555D-02  0.214268D-01 -0.257723D-01 -0.583428D-03  0.628629D-03
      9  0.860174D-01 -0.136536D-01 -0.140733D+00  0.636370D-01 -0.328296D-02
     10 -0.141191D+00 -0.133406D-01 -0.142657D-01  0.832764D-02  0.348983D-02
     11 -0.317913D-01 -0.204005D-01 -0.288434D-01  0.564422D-02 -0.142407D-01
     12 -0.111595D-02 -0.101747D-01 -0.139934D+00 -0.299880D-01 -0.112791D-01
                6             7             8             9            10 
      6  0.921408D+00
      7 -0.126858D-01  0.490071D+00
      8  0.663256D-02  0.334910D-02 -0.505906D-03
      9 -0.808538D-02 -0.133574D+00  0.107799D-01  0.136747D+00
     10  0.117693D-01  0.435306D-02 -0.563122D-02 -0.160808D-01  0.128511D+00
     11  0.959274D-02  0.106651D-01 -0.215495D-01  0.615669D-02  0.154820D-01
     12  0.139060D-02  0.125266D-01  0.835992D-02  0.120710D-01  0.185773D-01
               11            12 
     11  0.561906D-01
     12  0.130939D-01  0.126473D+00
 Leave Link  703 at Sun Jun 27 11:54:42 2021, MaxMem=    33554432 cpu:         0.7
 GetPCM: File not found, return IValue=0.
 FrcOut:
 IF    =    33 IFX   =    45 IFXYZ =    57
 IFFX  =    69 IFFFX =   147 IFLen =    12
 IFFLen=    78 IFFFLn=     0 IEDerv=   147
 LEDerv=   629 IFroze=   934 ICStrt=  1131
 Hessian entering l716: 
                1             2             3             4             5 
      1  0.688903D+00
      2  0.494491D-01 -0.821903D-01
      3 -0.108930D+00  0.436212D-01  0.119538D+01
      4 -0.535497D-01 -0.176078D-01 -0.105368D-01  0.454843D-01
      5 -0.205233D-01  0.811640D-01  0.109945D-01  0.125470D-01 -0.675519D-01
      6  0.240288D-01 -0.197929D-01 -0.914714D+00 -0.231123D-01  0.356764D-02
      7 -0.494162D+00 -0.185007D-01  0.133733D+00 -0.262191D-03  0.448647D-02
      8  0.286555D-02  0.214268D-01 -0.257723D-01 -0.583428D-03  0.628629D-03
      9  0.860174D-01 -0.136536D-01 -0.140733D+00  0.636370D-01 -0.328296D-02
     10 -0.141191D+00 -0.133406D-01 -0.142657D-01  0.832764D-02  0.348983D-02
     11 -0.317913D-01 -0.204005D-01 -0.288434D-01  0.564422D-02 -0.142407D-01
     12 -0.111595D-02 -0.101747D-01 -0.139934D+00 -0.299880D-01 -0.112791D-01
                6             7             8             9            10 
      6  0.921408D+00
      7 -0.126858D-01  0.490071D+00
      8  0.663256D-02  0.334910D-02 -0.505906D-03
      9 -0.808538D-02 -0.133574D+00  0.107799D-01  0.136747D+00
     10  0.117693D-01  0.435306D-02 -0.563122D-02 -0.160808D-01  0.128511D+00
     11  0.959274D-02  0.106651D-01 -0.215495D-01  0.615669D-02  0.154820D-01
     12  0.139060D-02  0.125266D-01  0.835992D-02  0.120710D-01  0.185773D-01
               11            12 
     11  0.561906D-01
     12  0.130939D-01  0.126473D+00
 DipoleDeriv   =-1.50271443D-01 1.11711237D-01 2.94819451D-03
                 1.46292238D-01-1.11773526D+00 1.18176829D-01
                 1.95290206D-03 8.86813488D-02-1.86593948D-01
                 1.43402308D-02-5.69953191D-02-4.09073818D-02
                -6.27213420D-02 3.75912627D-01 1.70004063D-02
                 2.50796915D-02-8.04657541D-03 8.81979837D-04
                 2.55612020D-02-2.18143435D-02 4.13307348D-02
                -4.16049288D-03 3.79487565D-01-6.81301796D-02
                -5.23938675D-02-5.40433320D-02 6.98230330D-02
                 1.10370011D-01-3.29015742D-02-3.37154755D-03
                -7.94104028D-02 3.62335067D-01-6.70470560D-02
                 2.53612740D-02-2.65914415D-02 1.15888935D-01
 Quadrupole    = 1.01784301D+00-1.28437249D+00 2.66529479D-01
                 3.26642373D-01 4.36133772D-01 2.07953408D-01
 VibFq2-Diag1:  N=     12 IV=           5 MDV=    33552553 NE2=     2796045
 IAlgDg is returning  0.
 Full mass-weighted force constant matrix:
 Low frequencies ----1429.8249 -587.6515 -358.4143   -0.0015   -0.0008   -0.0007
 Low frequencies --- 1261.9541 1859.6934 1945.7230
 OrtVCM:  Ph=1 IPass= 1 DotMx1= 0.00D+00
 OrtVCM:  IS=    1 I=    1 IndO=    1 Dot= 1.00D+00 DotN= 1.00D+00 ElMax1= 9.07D-01 ElMax1N= 9.07D-01
 OrtVCM:  Ph=2 NNew=    0 IAdd=    2 IPass= 1 DotMx2= 0.00D+00
 OrtVCM:  IS=    1 I=    2 IndO=    2 Dot= 1.00D+00 DotN= 1.00D+00 ElMax1= 9.07D-01 ElMax1N= 9.07D-01
 OrtVCM:  Ph=2 NNew=    0 IAdd=    3 IPass= 1 DotMx2= 0.00D+00
 OrtVCM:  IS=    1 I=    3 IndO=    3 Dot= 1.00D+00 DotN= 1.00D+00 ElMax1= 9.07D-01 ElMax1N= 9.07D-01
 OrtVCM:  Ph=2 NNew=    0 IAdd=    4 IPass= 1 DotMx2= 1.39D-17
 OrtVCM:  IS=    1 I=    4 IndO=    4 Dot= 1.00D+00 DotN= 1.00D+00 ElMax1= 7.69D-01 ElMax1N= 7.69D-01
 OrtVCM:  Ph=2 NNew=    0 IAdd=    5 IPass= 1 DotMx2= 2.80D-16
 OrtVCM:  IS=    1 I=    5 IndO=    5 Dot= 1.00D+00 DotN= 1.00D+00 ElMax1= 7.90D-01 ElMax1N= 7.90D-01
 OrtVCM:  Ph=2 NNew=    0 IAdd=    6 IPass= 1 DotMx2= 2.08D-17
 OrtVCM:  IS=    1 I=    6 IndO=    6 Dot= 1.00D+00 DotN= 1.00D+00 ElMax1= 5.63D-01 ElMax1N= 5.63D-01
 OrtVCM:  Ph=1 IPass= 1 DotMx1= 9.07D-01
 OrtVCM:  Ph=1 IPass= 2 DotMx1= 4.79D-16
 OrtVCM:  IS=    1 I=    1 IndO=    7 Dot= 1.76D-01 DotN= 1.76D-01 ElMax1= 2.22D-01 ElMax1N= 2.22D-01
 OrtVCM:  Ph=2 NNew=    0 IAdd=    2 IPass= 1 DotMx2= 6.85D-04
 OrtVCM:  Ph=2 NNew=    0 IAdd=    2 IPass= 2 DotMx2= 3.42D-18
 OrtVCM:  IS=    1 I=    2 IndO=    8 Dot= 1.77D-01 DotN= 1.77D-01 ElMax1= 2.27D-01 ElMax1N= 2.27D-01
 OrtVCM:  Ph=2 NNew=    0 IAdd=    3 IPass= 1 DotMx2= 1.32D-03
 OrtVCM:  Ph=2 NNew=    0 IAdd=    3 IPass= 2 DotMx2= 4.99D-18
 OrtVCM:  IS=    1 I=    3 IndO=    9 Dot= 1.75D-01 DotN= 1.75D-01 ElMax1= 2.21D-01 ElMax1N= 2.21D-01
 OrtVCM:  Ph=2 NNew=    0 IAdd=    4 IPass= 1 DotMx2= 5.17D-01
 OrtVCM:  Ph=2 NNew=    0 IAdd=    4 IPass= 2 DotMx2= 4.12D-18
 OrtVCM:  IS=    1 I=    4 IndO=   10 Dot= 4.13D-01 DotN= 4.13D-01 ElMax1= 4.13D-01 ElMax1N= 4.13D-01
 OrtVCM:  Ph=2 NNew=    0 IAdd=    5 IPass= 1 DotMx2= 5.07D-01
 OrtVCM:  Ph=2 NNew=    0 IAdd=    5 IPass= 2 DotMx2= 1.68D-16
 OrtVCM:  IS=    1 I=    5 IndO=    0 Dot= 6.43D-03 DotN= 6.43D-03 ElMax1= 6.51D-02 ElMax1N= 6.51D-02
 OrtVCM:  Ph=2 NNew=    0 IAdd=    6 IPass= 1 DotMx2= 5.30D-01
 OrtVCM:  Ph=2 NNew=    0 IAdd=    6 IPass= 2 DotMx2= 5.55D-17
 OrtVCM:  IS=    1 I=    6 IndO=   11 Dot= 6.60D-01 DotN= 6.60D-01 ElMax1= 6.60D-01 ElMax1N= 6.60D-01
 SchOr2:  IPass= 1 Test2A= 1.00D-01 IOff=     0 NDo=     6 NNew=     5
 OrtVCM:  Ph=1 IPass= 1 DotMx1= 5.31D-01
 OrtVCM:  Ph=1 IPass= 2 DotMx1= 1.04D-16
 OrtVCM:  IS=    1 I=    1 IndO=   12 Dot= 4.75D-01 DotN= 4.75D-01 ElMax1= 4.75D-01 ElMax1N= 4.75D-01
 SchOr2:  IPass= 1 Test2A= 1.00D-01 IOff=     6 NDo=     1 NNew=     1
 VibFq2-Diag2:  N=      6 IV=           5 MDV=    33552553 NE2=     5592091
 IAlgDg is returning  0.

 Eigenvalues of Mass-weighted Force Constants in hartree/(bohr**2*amu):
    -0.96974678D+03     0.16803876D+04     0.19317870D+04     0.20596439D+04
     0.38748221D+04     0.50957776D+04
 ******    1 imaginary frequencies (negative Signs) ****** 
 Dipole derivatives wrt mode   1:  3.05336D+00 -2.23324D+01  2.73631D+00
 Vibrational polarizability contributions from mode   1       0.2667918      14.2721082       0.2142634
 Vibrational hyperpolarizability contributions from mode   1       0.0000000      -0.0000000       0.0000000
 Dipole derivatives wrt mode   2: -1.55275D+00  5.64975D-01  2.96609D+00
 Vibrational polarizability contributions from mode   2       0.0229781       0.0030421       0.0838463
 Vibrational hyperpolarizability contributions from mode   2      -0.0000000       0.0000000       0.0000000
 Dipole derivatives wrt mode   3: -2.34249D+00 -4.66942D-01  1.18140D+00
 Vibrational polarizability contributions from mode   3       0.0395702       0.0015723       0.0100649
 Vibrational hyperpolarizability contributions from mode   3      -0.0000000      -0.0000000       0.0000000
 Dipole derivatives wrt mode   4: -1.78238D+00 -3.60116D-01 -2.61411D+00
 Vibrational polarizability contributions from mode   4       0.0201536       0.0008227       0.0433506
 Vibrational hyperpolarizability contributions from mode   4      -0.0000000      -0.0000000      -0.0000000
 Dipole derivatives wrt mode   5: -1.66974D+00 -8.04426D-02 -4.66891D-01
 Vibrational polarizability contributions from mode   5       0.0049972       0.0000116       0.0003907
 Vibrational hyperpolarizability contributions from mode   5      -0.0000000      -0.0000000      -0.0000000
 Dipole derivatives wrt mode   6:  6.81945D-01 -9.47275D-02  4.35853D-01
 Vibrational polarizability contributions from mode   6       0.0004820       0.0000093       0.0001969
 Vibrational hyperpolarizability contributions from mode   6       0.0000000      -0.0000000       0.0000000
 Diagonal vibrational polarizability:
        0.3549729      14.2775662       0.3521128
 NorSel:  MapVib=      1      2      3      4      5      6
 Harmonic frequencies (cm**-1), IR intensities (KM/Mole), Raman scattering
 activities (A**4/AMU), depolarization ratios for plane and unpolarized
 incident light, reduced masses (AMU), force constants (mDyne/A),
 and normal coordinates:
                      1                      2                      3
                      A                      A                      A
 Frequencies --   -969.7468              1680.3876              1931.7870
 Red. masses --      1.2059                 1.0997                 1.0365
 Frc consts  --      0.6681                 1.8295                 2.2790
 IR Inten    --    515.5476                11.5279                 7.1010
  Atom  AN      X      Y      Z        X      Y      Z        X      Y      Z
     1   7    -0.01   0.12  -0.01     0.07   0.00  -0.04    -0.02  -0.01  -0.04
     2   1     0.06  -0.56   0.01    -0.70  -0.13  -0.06     0.47   0.02  -0.02
     3   1     0.04  -0.59   0.08     0.11   0.10   0.11     0.26   0.11   0.66
     4   1     0.06  -0.55   0.07    -0.44  -0.02   0.50    -0.51  -0.03  -0.03
                      4                      5                      6
                      A                      A                      A
 Frequencies --   2059.6439              3874.8221              5095.7776
 Red. masses --      1.1060                 1.0727                 1.0781
 Frc consts  --      2.7643                 9.4897                16.4947
 IR Inten    --     10.1401                 3.0125                 0.6640
  Atom  AN      X      Y      Z        X      Y      Z        X      Y      Z
     1   7     0.06   0.01   0.07     0.07   0.00  -0.02     0.00  -0.00  -0.07
     2   1    -0.10   0.04   0.08     0.04  -0.01  -0.07    -0.02   0.00   1.00
     3   1    -0.04  -0.04  -0.35    -0.94  -0.00   0.31    -0.05   0.01   0.01
     4   1    -0.63  -0.20  -0.64    -0.05  -0.02  -0.01     0.01   0.01   0.02

 -------------------
 - Thermochemistry -
 -------------------
 Temperature  2500.000 Kelvin.  Pressure   1.00000 Atm.
 Atom     1 has atomic number  7 and mass  14.00307
 Atom     2 has atomic number  1 and mass   1.00783
 Atom     3 has atomic number  1 and mass   1.00783
 Atom     4 has atomic number  1 and mass   1.00783
 Molecular mass:    17.02655 amu.
 Principal axes and moments of inertia in atomic units:
                           1         2         3
     Eigenvalues --     4.33849   8.41533  12.60467
           X            0.90171  -0.41570  -0.11880
           Y            0.14787   0.03832   0.98826
           Z            0.40627   0.90869  -0.09603
 This molecule is an asymmetric top.
 Rotational symmetry number  1.
 Rotational temperatures (Kelvin)     19.96405    10.29238     6.87157
 Rotational constants (GHZ):         415.98378   214.45873   143.18037
    1 imaginary frequencies ignored.
 Zero-point vibrational energy      87581.1 (Joules/Mol)
                                   20.93239 (Kcal/Mol)
 Warning -- explicit consideration of   5 degrees of freedom as
           vibrations may cause significant error
 Vibrational temperatures:   2417.70  2779.41  2963.36  5575.00  7331.68
          (Kelvin)
 
 Zero-point correction=                           0.033358 (Hartree/Particle)
 Thermal correction to Energy=                    0.073685
 Thermal correction to Enthalpy=                  0.081602
 Thermal correction to Gibbs Free Energy=        -0.206054
 Sum of electronic and zero-point Energies=            -55.341958
 Sum of electronic and thermal Energies=               -55.301631
 Sum of electronic and thermal Enthalpies=             -55.293714
 Sum of electronic and thermal Free Energies=          -55.581369
 
                     E (Thermal)             CV                S
                      KCal/Mol        Cal/Mol-Kelvin    Cal/Mol-Kelvin
 Total                   46.238             13.715             72.203
 Electronic               0.000              0.000              0.000
 Translational            7.452              2.981             45.005
 Rotational               7.452              2.981             20.234
 Vibrational             31.334              7.753              6.964
 Vibration     1          5.349              1.839              2.129
 Vibration     2          5.469              1.795              1.876
 Vibration     3          5.537              1.770              1.762
 Vibration     4          6.874              1.334              0.760
 Vibration     5          8.104              1.015              0.437
                       Q            Log10(Q)             Ln(Q)
 Total Bot       0.201005D+12         11.303208         26.026598
 Total V=0       0.135855D+14         13.133077         30.240028
 Vib (Bot)       0.606352D-01         -1.217275         -2.802879
 Vib (Bot)    1  0.994818D+00         -0.002256         -0.005195
 Vib (Bot)    2  0.854766D+00         -0.068153         -0.156927
 Vib (Bot)    3  0.796198D+00         -0.098979         -0.227908
 Vib (Bot)    4  0.367424D+00         -0.434832         -1.001239
 Vib (Bot)    5  0.243750D+00         -0.613055         -1.411611
 Vib (V=0)       0.409821D+01          0.612594          1.410550
 Vib (V=0)    1  0.161340D+01          0.207743          0.478345
 Vib (V=0)    2  0.149027D+01          0.173264          0.398954
 Vib (V=0)    3  0.144018D+01          0.158416          0.364765
 Vib (V=0)    4  0.112048D+01          0.049406          0.113761
 Vib (V=0)    5  0.105625D+01          0.023767          0.054725
 Electronic      0.100000D+01          0.000000          0.000000
 Translational   0.562222D+09          8.749908         20.147408
 Rotational      0.589624D+04          3.770575          8.682069
 After rot to inp orien Dipole Moment 
                 1 
      1  -0.534747D-02
      2  -0.205677D+00
      3   0.287949D-01
 After rot to inp orien Dipole Derivatives 
                 1             2             3             4             5 
      1  -0.150271D+00  0.146292D+00  0.195290D-02  0.143402D-01 -0.627213D-01
      2   0.111711D+00 -0.111774D+01  0.886813D-01 -0.569953D-01  0.375913D+00
      3   0.294819D-02  0.118177D+00 -0.186594D+00 -0.409074D-01  0.170004D-01
                 6             7             8             9            10 
      1   0.250797D-01  0.255612D-01 -0.416049D-02 -0.523939D-01  0.110370D+00
      2  -0.804658D-02 -0.218143D-01  0.379488D+00 -0.540433D-01 -0.329016D-01
      3   0.881980D-03  0.413307D-01 -0.681302D-01  0.698230D-01 -0.337155D-02
                11            12 
      1  -0.794104D-01  0.253613D-01
      2   0.362335D+00 -0.265914D-01
      3  -0.670471D-01  0.115889D+00
 After rot to inp orien Polarizability 
                 1 
      1   0.822660D+01
      2   0.104277D+01
      3   0.715586D+00
      4   0.181717D+01
      5   0.584010D+00
      6   0.493232D+01
 After rot to inp orien HyperPolarizability 
                 1 
      1   0.606326D+00
      2  -0.102448D+01
      3  -0.811898D+00
      4  -0.117227D+01
      5  -0.845826D+01
      6  -0.123523D+01
      7  -0.564724D+00
      8  -0.292969D+01
      9   0.135519D+00
     10   0.521961D+01
 After rot to inp orien Quadrupole Moment 
                 1 
      1   0.101784D+01
      2  -0.128437D+01
      3   0.266529D+00
      4   0.326642D+00
      5   0.436134D+00
      6   0.207953D+00
 After rot to inp orien QEq coupling tensors 
                 1             2             3             4 
      1  -0.110552D+01  0.291194D+00 -0.297772D+00 -0.201237D-01
      2  -0.391116D+00 -0.134947D-01 -0.171969D-02 -0.114251D-01
      3   0.214853D+01  0.404879D+00  0.209105D+00  0.335357D-01
      4  -0.277950D-01  0.267222D-01  0.145548D+00 -0.224017D-01
      5  -0.308467D+00 -0.179266D-02 -0.889180D-02 -0.968294D-02
      6  -0.104300D+01 -0.696073D+00  0.886674D-01 -0.134121D-01
 After rot to inp orien force vector number 1
 I=    1 X=   7.374541423412D-02 Y=   6.386829834639D-03 Z=   1.529632053427D-01
 I=    2 X=   3.093855076228D-02 Y=   7.798777005034D-03 Z=  -1.090033772314D-01
 I=    3 X=   3.831422540403D-02 Y=   1.224383206885D-02 Z=   3.182044903665D-02
 I=    4 X=  -1.429981904004D-01 Y=  -2.642943890852D-02 Z=  -7.578027714795D-02
 After rot to inp orien force vector number 2
 I=    1 X=   7.374541423412D-02 Y=   6.386829834639D-03 Z=   1.529632053427D-01
 I=    2 X=   3.093855076228D-02 Y=   7.798777005034D-03 Z=  -1.090033772314D-01
 I=    3 X=   3.831422540403D-02 Y=   1.224383206885D-02 Z=   3.182044903665D-02
 I=    4 X=  -1.429981904004D-01 Y=  -2.642943890852D-02 Z=  -7.578027714795D-02
 After rot to inp orien cartesian force constants 
                1             2             3             4             5 
      1  0.688903D+00
      2  0.494491D-01 -0.821903D-01
      3 -0.108930D+00  0.436212D-01  0.119538D+01
      4 -0.535497D-01 -0.176078D-01 -0.105368D-01  0.454843D-01
      5 -0.205233D-01  0.811640D-01  0.109945D-01  0.125470D-01 -0.675519D-01
      6  0.240288D-01 -0.197929D-01 -0.914714D+00 -0.231123D-01  0.356764D-02
      7 -0.494162D+00 -0.185007D-01  0.133733D+00 -0.262191D-03  0.448647D-02
      8  0.286555D-02  0.214268D-01 -0.257723D-01 -0.583428D-03  0.628629D-03
      9  0.860174D-01 -0.136536D-01 -0.140733D+00  0.636370D-01 -0.328296D-02
     10 -0.141191D+00 -0.133406D-01 -0.142657D-01  0.832764D-02  0.348983D-02
     11 -0.317913D-01 -0.204005D-01 -0.288434D-01  0.564422D-02 -0.142407D-01
     12 -0.111595D-02 -0.101747D-01 -0.139934D+00 -0.299880D-01 -0.112791D-01
                6             7             8             9            10 
      6  0.921408D+00
      7 -0.126858D-01  0.490071D+00
      8  0.663256D-02  0.334910D-02 -0.505906D-03
      9 -0.808538D-02 -0.133574D+00  0.107799D-01  0.136747D+00
     10  0.117693D-01  0.435306D-02 -0.563122D-02 -0.160808D-01  0.128511D+00
     11  0.959274D-02  0.106651D-01 -0.215495D-01  0.615669D-02  0.154820D-01
     12  0.139060D-02  0.125266D-01  0.835992D-02  0.120710D-01  0.185773D-01
               11            12 
     11  0.561906D-01
     12  0.130939D-01  0.126473D+00
 Z-matrix is all fixed cartesians, so copy forces.
 Force constants in Cartesian coordinates: 
                1             2             3             4             5 
      1  0.688903D+00
      2  0.494491D-01 -0.821903D-01
      3 -0.108930D+00  0.436212D-01  0.119538D+01
      4 -0.535497D-01 -0.176078D-01 -0.105368D-01  0.454843D-01
      5 -0.205233D-01  0.811640D-01  0.109945D-01  0.125470D-01 -0.675519D-01
      6  0.240288D-01 -0.197929D-01 -0.914714D+00 -0.231123D-01  0.356764D-02
      7 -0.494162D+00 -0.185007D-01  0.133733D+00 -0.262191D-03  0.448647D-02
      8  0.286555D-02  0.214268D-01 -0.257723D-01 -0.583428D-03  0.628629D-03
      9  0.860174D-01 -0.136536D-01 -0.140733D+00  0.636370D-01 -0.328296D-02
     10 -0.141191D+00 -0.133406D-01 -0.142657D-01  0.832764D-02  0.348983D-02
     11 -0.317913D-01 -0.204005D-01 -0.288434D-01  0.564422D-02 -0.142407D-01
     12 -0.111595D-02 -0.101747D-01 -0.139934D+00 -0.299880D-01 -0.112791D-01
                6             7             8             9            10 
      6  0.921408D+00
      7 -0.126858D-01  0.490071D+00
      8  0.663256D-02  0.334910D-02 -0.505906D-03
      9 -0.808538D-02 -0.133574D+00  0.107799D-01  0.136747D+00
     10  0.117693D-01  0.435306D-02 -0.563122D-02 -0.160808D-01  0.128511D+00
     11  0.959274D-02  0.106651D-01 -0.215495D-01  0.615669D-02  0.154820D-01
     12  0.139060D-02  0.125266D-01  0.835992D-02  0.120710D-01  0.185773D-01
               11            12 
     11  0.561906D-01
     12  0.130939D-01  0.126473D+00
 Final forces over variables, Energy=-5.53753154D+01:
 -7.37454142D-02-3.09385508D-02-3.83142254D-02 1.42998190D-01
 -6.38682983D-03-7.79877701D-03-1.22438321D-02 2.64294389D-02
 -1.52963205D-01 1.09003377D-01-3.18204490D-02 7.57802771D-02
 Leave Link  716 at Sun Jun 27 11:54:42 2021, MaxMem=    33554432 cpu:         0.1
 NDeriv=   6 NFrqRd=  0 NDerD0=   0 MskFDP=       0 MskDFD=       0 MskDF0=       0
 At 1st pt F.D. properties file   721 does not exist.
 At 1st pt F.D. properties file   722 does not exist.
 D2Numr ... symmetry will not be used.
     8 basis functions,    24 primitive gaussians,     8 cartesian basis functions
     5 alpha electrons        5 beta electrons
       nuclear repulsion energy        11.3349025271 Hartrees.
 NAtoms=    4 NActive=    4 NUniq=    4 SFac= 1.00D+00 NAtFMM=   60 NAOKFM=F Big=F
 Initial guess from the checkpoint file:  "/scratch/scr/zyzhu/xc02n14/202106271154.20339/Gau-20361.chk"
 B after Tr=    -0.000132    0.001453   -0.000127
         Rot=    1.000000   -0.000008   -0.000002   -0.000011 Ang=  -0.00 deg.
 SCF Done:  E(RHF) =  -55.3751949944     A.U. after    8 cycles
            NFock=  8  Conv=0.29D-08     -V/T= 2.0065
 NROrb=      8 NOA=     5 NOB=     5 NVA=     3 NVB=     3
 Symmetrizing basis deriv contribution to polar:
 IMax=3 JMax=2 DiffMx= 0.00D+00
 Calling FoFCou, ICntrl=  3107 FMM=F I1Cent=   0 AccDes= 0.00D+00.
 End of G2Drv F.D. properties file   721 does not exist.
 End of G2Drv F.D. properties file   722 does not exist.
 End of G2Drv F.D. properties file   788 does not exist.
          IDoAtm=1111
 End of Minotr F.D. properties file   721 does not exist.
 End of Minotr F.D. properties file   722 does not exist.
 End of Minotr F.D. properties file   788 does not exist.

 **********************************************************************

            Population analysis using the SCF density.

 **********************************************************************

 Alpha  occ. eigenvalues --  -15.25532  -1.02492  -0.54604  -0.52471  -0.30077
 Alpha virt. eigenvalues --    0.42914   0.73823   0.83562
          Condensed to atoms (all electrons):
 Mulliken charges:
               1
     1  N   -0.492941
     2  H    0.174847
     3  H    0.162584
     4  H    0.155510
 Sum of Mulliken charges =  -0.00000
 Mulliken charges with hydrogens summed into heavy atoms:
               1
     1  N   -0.000000
 APT charges:
               1
     1  N   -0.487623
     2  H    0.131012
     3  H    0.159139
     4  H    0.197472
 Sum of APT charges =  -0.00000
 APT charges with hydrogens summed into heavy atoms:
               1
     1  N   -0.000000
 Electronic spatial extent (au):  <R**2>=             26.1538
 Charge=             -0.0000 electrons
 Dipole moment (field-independent basis, Debye):
    X=             -0.0183    Y=             -0.4883    Z=              0.0690  Tot=              0.4935
  Exact polarizability:   8.215   1.044   0.718   1.813   0.586   4.926
 Approx polarizability:   6.423   0.855   0.467   1.464   0.486   3.791
 GetPCM: File not found, return IValue=0.
 Pair potential:
 LT D matrices:
                1             2             3             4             5 
      1  0.207491D+01
      2 -0.283166D+00  0.118861D+01
      3  0.642507D-02 -0.524472D-01  0.674107D+00
      4 -0.308557D-01  0.159332D+00 -0.152118D+00  0.194760D+01
      5  0.567840D-02 -0.699783D-01 -0.148363D-02 -0.119949D+00  0.707972D+00
      6 -0.844791D-01  0.185445D+00 -0.694088D-01 -0.197034D-01  0.582403D+00
      7 -0.836113D-01  0.234369D+00  0.523578D+00 -0.382879D-01 -0.254961D+00
      8 -0.901059D-01  0.330810D+00 -0.440448D+00 -0.174305D+00 -0.329319D+00
                6             7             8 
      6  0.535176D+00
      7 -0.211617D+00  0.551106D+00
      8 -0.179672D+00 -0.168949D+00  0.570278D+00
 PT:          0:
                1             2             3             4             5 
      1  0.207491D+01
      2 -0.283166D+00  0.118861D+01
      3  0.642507D-02 -0.524472D-01  0.674107D+00
      4 -0.308557D-01  0.159332D+00 -0.152118D+00  0.194760D+01
      5  0.567840D-02 -0.699783D-01 -0.148363D-02 -0.119949D+00  0.707972D+00
      6 -0.844791D-01  0.185445D+00 -0.694088D-01 -0.197034D-01  0.582403D+00
      7 -0.836113D-01  0.234369D+00  0.523578D+00 -0.382879D-01 -0.254961D+00
      8 -0.901059D-01  0.330810D+00 -0.440448D+00 -0.174305D+00 -0.329319D+00
                6             7             8 
      6  0.535176D+00
      7 -0.211617D+00  0.551106D+00
      8 -0.179672D+00 -0.168949D+00  0.570278D+00
 WT:          0:
                1             2             3             4             5 
      1  0.302154D+02
      2  0.594074D+00  0.119676D+01
      3  0.390520D-01  0.192087D-01  0.356388D+00
      4 -0.221102D-01  0.223733D-01 -0.332910D-01  0.588431D+00
      5  0.575328D-01  0.288790D-01 -0.737939D-02 -0.277786D-01  0.385064D+00
      6 -0.314863D+00  0.248295D+00 -0.327288D-01 -0.467617D-02  0.330277D+00
      7 -0.266420D+00  0.247343D+00  0.288547D+00 -0.957480D-02 -0.130487D+00
      8 -0.194821D+00  0.255072D+00 -0.227664D+00 -0.714387D-01 -0.166042D+00
                6             7             8 
      6  0.335320D+00
      7 -0.813106D-01  0.327971D+00
      8 -0.701746D-01 -0.691472D-01  0.311133D+00
 FFX after V2NN 
                1             2             3             4             5 
      1  0.000000D+00
      2  0.000000D+00  0.000000D+00
      3  0.000000D+00  0.000000D+00  0.000000D+00
      4  0.000000D+00  0.000000D+00  0.000000D+00  0.989663D+00
      5  0.000000D+00  0.000000D+00  0.000000D+00  0.304706D+00 -0.262799D+01
      6  0.000000D+00  0.000000D+00  0.000000D+00  0.381025D-02  0.198335D+00
      7  0.000000D+00  0.000000D+00  0.000000D+00  0.124937D+01  0.165170D-04
      8  0.000000D+00  0.000000D+00  0.000000D+00  0.165170D-04  0.124921D+01
      9  0.000000D+00  0.000000D+00  0.000000D+00  0.249706D-02 -0.247910D-01
     10  0.000000D+00  0.000000D+00  0.000000D+00 -0.167056D+01 -0.166579D-01
     11  0.000000D+00  0.000000D+00  0.000000D+00 -0.166579D-01  0.922550D+00
     12  0.000000D+00  0.000000D+00  0.000000D+00  0.672979D+00  0.432298D-02
     13  0.000000D+00  0.000000D+00  0.000000D+00 -0.568475D+00 -0.288065D+00
     14  0.000000D+00  0.000000D+00  0.000000D+00 -0.288065D+00  0.456237D+00
     15  0.000000D+00  0.000000D+00  0.000000D+00 -0.679286D+00 -0.177867D+00
                6             7             8             9            10 
      6  0.163833D+01
      7  0.249706D-02 -0.124266D+01
      8 -0.247910D-01  0.502573D-02 -0.130758D+01
      9 -0.249858D+01 -0.307309D-01  0.324436D-01  0.255024D+01
     10  0.672979D+00 -0.917791D-02 -0.117539D-04  0.568410D-01  0.170942D+01
     11  0.432298D-02 -0.117539D-04  0.384834D-01  0.140177D-04  0.228941D-01
     12  0.748008D+00  0.568410D-01  0.140177D-04 -0.293055D-01 -0.721327D+00
     13 -0.679286D+00  0.246823D-02 -0.503050D-02 -0.286072D-01 -0.296838D-01
     14 -0.177867D+00 -0.503050D-02  0.198909D-01 -0.766661D-02 -0.622445D-02
     15  0.112237D+00 -0.286072D-01 -0.766661D-02 -0.223591D-01 -0.849287D-02
               11            12            13            14            15 
     11 -0.976240D+00
     12 -0.318120D-02 -0.733180D+00
     13 -0.622445D-02 -0.849287D-02  0.595690D+00
     14  0.152069D-01 -0.115579D-02  0.299320D+00 -0.491335D+00
     15 -0.115579D-02  0.144769D-01  0.716386D+00  0.186689D+00 -0.104355D+00
 Entering OneElI...
 OneElI was handed    33554150 working-precision words.
 Calculate overlap and kinetic energy integrals
    NBasis =   8  MinDer = 2  MaxDer = 2
 Requested accuracy = 0.1000D-12
 ShPair: Thresh= 1.00D-13 NBox=     0 BxSize= 0.00D+00 RnKept= 3.96D+00
         NSMCal=                   15 NSMKep=                  15
 PrsmSu:  NPrtUS=   4 ThrOK=T IAlg=1 NPAlg=1 LenDen=           0.
 Prism:   IPart=     0 DynPar=F LinDyn=F Incr=           1.
 PRISM was handed     8386390 working-precision words and    15 shell-pairs
 PRISM was handed     8386390 working-precision words and    15 shell-pairs
 PRISM was handed     8386390 working-precision words and    15 shell-pairs
 PRISM was handed     8386390 working-precision words and    15 shell-pairs
 IPart=  0 NShTot=           5 NBatch=           3 AvBLen=         1.7
 IPart=  3 NShTot=           3 NBatch=           2 AvBLen=         1.5
 IPart=  2 NShTot=           3 NBatch=           2 AvBLen=         1.5
 IPart=  1 NShTot=           4 NBatch=           2 AvBLen=         2.0
 PrSmSu:  NxtVal=              5.
 FFX after D2ST 
                1             2             3             4             5 
      1  0.000000D+00
      2  0.000000D+00  0.000000D+00
      3  0.000000D+00  0.000000D+00  0.000000D+00
      4  0.000000D+00  0.000000D+00  0.000000D+00  0.909420D+00
      5  0.000000D+00  0.000000D+00  0.000000D+00  0.474026D+00 -0.410087D+01
      6  0.000000D+00  0.000000D+00  0.000000D+00  0.273063D+00  0.295689D+00
      7  0.000000D+00  0.000000D+00  0.000000D+00  0.190607D+01 -0.373803D-03
      8  0.000000D+00  0.000000D+00  0.000000D+00 -0.373803D-03  0.190554D+01
      9  0.000000D+00  0.000000D+00  0.000000D+00 -0.584222D-01 -0.487728D-01
     10  0.000000D+00  0.000000D+00  0.000000D+00 -0.198060D+01 -0.469567D-01
     11  0.000000D+00  0.000000D+00  0.000000D+00 -0.469567D-01  0.144881D+01
     12  0.000000D+00  0.000000D+00  0.000000D+00  0.809644D+00  0.116691D-01
     13  0.000000D+00  0.000000D+00  0.000000D+00 -0.834893D+00 -0.426695D+00
     14  0.000000D+00  0.000000D+00  0.000000D+00 -0.426695D+00  0.746520D+00
     15  0.000000D+00  0.000000D+00  0.000000D+00 -0.102428D+01 -0.258586D+00
                6             7             8             9            10 
      6  0.110729D+01
      7 -0.584222D-01 -0.191147D+01
      8 -0.487728D-01  0.341724D-02 -0.194396D+01
      9 -0.260055D+01  0.488686D-01  0.533960D-01  0.261964D+01
     10  0.809644D+00  0.100445D-02 -0.554792D-05  0.268293D-01  0.199612D+01
     11  0.116691D-01 -0.554792D-05  0.235009D-01  0.661647D-05  0.509281D-01
     12  0.126004D+01  0.268293D-01  0.661647D-05 -0.849589D-02 -0.831062D+00
     13 -0.102428D+01  0.439636D-02 -0.303789D-02 -0.172757D-01 -0.165321D-01
     14 -0.258586D+00 -0.303789D-02  0.149178D-01 -0.462982D-02 -0.396586D-02
     15  0.233226D+00 -0.172757D-01 -0.462982D-02 -0.105967D-01 -0.541116D-02
               11            12            13            14            15 
     11 -0.148438D+01
     12 -0.109394D-01 -0.126315D+01
     13 -0.396586D-02 -0.541116D-02  0.847029D+00
     14  0.120696D-01 -0.736405D-03  0.433699D+00 -0.773507D+00
     15 -0.736405D-03  0.116045D-01  0.104697D+01  0.263952D+00 -0.234233D+00
 Entering OneElI...
 OneElI was handed    33554150 working-precision words.
 Calculate potential energy integrals
    NBasis =   8  MinDer = 2  MaxDer = 2
 Requested accuracy = 0.1000D-12
 ShPair: Thresh= 1.00D-13 NBox=     0 BxSize= 0.00D+00 RnKept= 3.96D+00
         NSMCal=                   15 NSMKep=                  15
 PrsmSu:  NPrtUS=   4 ThrOK=T IAlg=1 NPAlg=1 LenDen=           0.
 Prism:   IPart=     0 DynPar=F LinDyn=F Incr=           1.
 PRISM was handed     8386347 working-precision words and    15 shell-pairs
 PRISM was handed     8386347 working-precision words and    15 shell-pairs
 PRISM was handed     8386347 working-precision words and    15 shell-pairs
 PRISM was handed     8386347 working-precision words and    15 shell-pairs
 IPart=  0 NShTot=          20 NBatch=           5 AvBLen=         4.0
 IPart=  1 NShTot=          16 NBatch=           4 AvBLen=         4.0
 IPart=  2 NShTot=          12 NBatch=           3 AvBLen=         4.0
 IPart=  3 NShTot=          12 NBatch=           3 AvBLen=         4.0
 PrSmSu:  NxtVal=              5.
 FFX after D2V 
                1             2             3             4             5 
      1  0.000000D+00
      2  0.000000D+00  0.000000D+00
      3  0.000000D+00  0.000000D+00  0.000000D+00
      4  0.000000D+00  0.000000D+00  0.000000D+00  0.153056D+01
      5  0.000000D+00  0.000000D+00  0.000000D+00 -0.558572D+00  0.547641D+01
      6  0.000000D+00  0.000000D+00  0.000000D+00 -0.112709D+01 -0.301118D+00
      7  0.000000D+00  0.000000D+00  0.000000D+00 -0.222860D+01 -0.146119D-01
      8  0.000000D+00  0.000000D+00  0.000000D+00 -0.127159D-01 -0.211771D+01
      9  0.000000D+00  0.000000D+00  0.000000D+00  0.160174D+00  0.852287D-01
     10  0.000000D+00  0.000000D+00  0.000000D+00  0.146914D+00  0.118371D+00
     11  0.000000D+00  0.000000D+00  0.000000D+00  0.103693D+00 -0.194341D+01
     12  0.000000D+00  0.000000D+00  0.000000D+00 -0.249606D+00 -0.414255D-01
     13  0.000000D+00  0.000000D+00  0.000000D+00  0.551134D+00  0.454812D+00
     14  0.000000D+00  0.000000D+00  0.000000D+00  0.467594D+00 -0.141529D+01
     15  0.000000D+00  0.000000D+00  0.000000D+00  0.121652D+01  0.257315D+00
                6             7             8             9            10 
      6  0.376909D+01
      7  0.225040D+00  0.224542D+01
      8  0.663029D-01  0.216535D-01  0.199457D+01
      9 -0.912397D+00 -0.304373D+00 -0.565726D-01  0.107835D+01
     10 -0.327488D+00 -0.227094D-01 -0.164188D-02  0.241680D+00 -0.521144D-01
     11 -0.348620D-01  0.117697D-02  0.915806D-01 -0.177056D-02 -0.984534D-01
     12 -0.201129D+01  0.123877D+00  0.156217D-02 -0.972038D-01  0.121865D+00
     13  0.122953D+01  0.589721D-02 -0.729572D-02 -0.974803D-01 -0.720897D-01
     14  0.269677D+00 -0.821859D-02  0.315637D-01 -0.268856D-01 -0.182760D-01
     15 -0.845402D+00 -0.445444D-01 -0.112925D-01 -0.687539D-01 -0.360571D-01
               11            12            13            14            15 
     11  0.183315D+01
     12  0.377509D-01  0.208130D+01
     13 -0.641691D-02  0.386395D-02 -0.484942D+00
     14  0.186819D-01  0.211246D-02 -0.441100D+00  0.136504D+01
     15 -0.111832D-02  0.271921D-01 -0.113592D+01 -0.244904D+00  0.886964D+00
 Second derivatives from L701 IAtSt=0:
                1             2             3             4             5 
      1  0.000000D+00
      2  0.000000D+00  0.000000D+00
      3  0.000000D+00  0.000000D+00  0.000000D+00
      4  0.000000D+00  0.000000D+00  0.000000D+00  0.153056D+01
      5  0.000000D+00  0.000000D+00  0.000000D+00 -0.558572D+00  0.547641D+01
      6  0.000000D+00  0.000000D+00  0.000000D+00 -0.112709D+01 -0.301118D+00
      7  0.000000D+00  0.000000D+00  0.000000D+00 -0.222860D+01 -0.146119D-01
      8  0.000000D+00  0.000000D+00  0.000000D+00 -0.127159D-01 -0.211771D+01
      9  0.000000D+00  0.000000D+00  0.000000D+00  0.160174D+00  0.852287D-01
     10  0.000000D+00  0.000000D+00  0.000000D+00  0.146914D+00  0.118371D+00
     11  0.000000D+00  0.000000D+00  0.000000D+00  0.103693D+00 -0.194341D+01
     12  0.000000D+00  0.000000D+00  0.000000D+00 -0.249606D+00 -0.414255D-01
     13  0.000000D+00  0.000000D+00  0.000000D+00  0.551134D+00  0.454812D+00
     14  0.000000D+00  0.000000D+00  0.000000D+00  0.467594D+00 -0.141529D+01
     15  0.000000D+00  0.000000D+00  0.000000D+00  0.121652D+01  0.257315D+00
                6             7             8             9            10 
      6  0.376909D+01
      7  0.225040D+00  0.224542D+01
      8  0.663029D-01  0.216535D-01  0.199457D+01
      9 -0.912397D+00 -0.304373D+00 -0.565726D-01  0.107835D+01
     10 -0.327488D+00 -0.227094D-01 -0.164188D-02  0.241680D+00 -0.521144D-01
     11 -0.348620D-01  0.117697D-02  0.915806D-01 -0.177056D-02 -0.984534D-01
     12 -0.201129D+01  0.123877D+00  0.156217D-02 -0.972038D-01  0.121865D+00
     13  0.122953D+01  0.589721D-02 -0.729572D-02 -0.974803D-01 -0.720897D-01
     14  0.269677D+00 -0.821859D-02  0.315637D-01 -0.268856D-01 -0.182760D-01
     15 -0.845402D+00 -0.445444D-01 -0.112925D-01 -0.687539D-01 -0.360571D-01
               11            12            13            14            15 
     11  0.183315D+01
     12  0.377509D-01  0.208130D+01
     13 -0.641691D-02  0.386395D-02 -0.484942D+00
     14  0.186819D-01  0.211246D-02 -0.441100D+00  0.136504D+01
     15 -0.111832D-02  0.271921D-01 -0.113592D+01 -0.244904D+00  0.886964D+00
 Polarizability into L701:
                1             2             3 
      1  0.821463D+01
      2  0.104397D+01  0.717850D+00
      3  0.181347D+01  0.586371D+00  0.492639D+01
 Polarizability after L701:
                1             2             3 
      1  0.821463D+01
      2  0.104397D+01  0.717850D+00
      3  0.181347D+01  0.586371D+00  0.492639D+01
 Dipole Derivatives into L701:
                 1             2             3             4             5 
      1  -0.150664D+00  0.145334D+00  0.177536D-02  0.136794D-01 -0.616566D-01
      2   0.113128D+00 -0.112571D+01  0.898169D-01 -0.567460D-01  0.378010D+00
      3   0.274404D-02  0.117242D+00 -0.186492D+00 -0.405929D-01  0.129113D-01
                 6             7             8             9            10 
      1   0.251337D-01  0.262240D-01 -0.736565D-02 -0.524596D-01  0.110760D+00
      2  -0.100820D-01 -0.233496D-01  0.381978D+00 -0.532334D-01 -0.330323D-01
      3   0.134563D-02  0.410004D-01 -0.656443D-01  0.692163D-01 -0.315158D-02
                11            12 
      1  -0.763120D-01  0.255506D-01
      2   0.365727D+00 -0.265015D-01
      3  -0.645088D-01  0.115930D+00
 Dipole Derivatives after L701:
                 1             2             3             4             5 
      1  -0.150664D+00  0.145334D+00  0.177536D-02  0.136794D-01 -0.616566D-01
      2   0.113128D+00 -0.112571D+01  0.898169D-01 -0.567460D-01  0.378010D+00
      3   0.274404D-02  0.117242D+00 -0.186492D+00 -0.405929D-01  0.129113D-01
                 6             7             8             9            10 
      1   0.251337D-01  0.262240D-01 -0.736565D-02 -0.524596D-01  0.110760D+00
      2  -0.100820D-01 -0.233496D-01  0.381978D+00 -0.532334D-01 -0.330323D-01
      3   0.134563D-02  0.410004D-01 -0.656443D-01  0.692163D-01 -0.315158D-02
                11            12 
      1  -0.763120D-01  0.255506D-01
      2   0.365727D+00 -0.265015D-01
      3  -0.645088D-01  0.115930D+00
 Hessian into L701:
                1             2             3             4             5 
      1  0.640613D+00
      2  0.849145D-01 -0.785428D-01
      3  0.389436D-01  0.637943D-01  0.592947D+00
      4 -0.682377D-01 -0.747144D-02 -0.465955D-01  0.636050D-01
      5 -0.993221D-02 -0.144735D-01  0.274796D-02 -0.118995D-02  0.628000D-01
      6  0.445352D-01 -0.423117D-01 -0.412742D+00  0.242423D-02  0.119024D-01
      7 -0.350423D+00 -0.415760D-01  0.138850D+00 -0.960401D-02  0.374807D-02
      8 -0.878919D-02  0.309795D-01 -0.154972D-01 -0.599125D-03 -0.233411D-01
      9  0.152028D-01 -0.126183D-02 -0.742262D-01  0.736675D-01 -0.330774D-02
     10 -0.221952D+00 -0.358671D-01 -0.131198D+00  0.142367D-01  0.737409D-02
[...]
 Qvib               0.60635D-01          0.73045D-01
 QZvib              0.40982D+01          0.46221D+01
 Energy             0.19346D+03          0.19395D+03         kJ/mol
 Enthalpy           0.21425D+03          0.21474D+03         kJ/mol
 Entropy            0.30210D+03          0.30384D+03         J/(mol K)
 Sp.Heat(V)         0.57384D+02          0.57925D+02         J/(mol K)
 Sp.Heat(P)         0.65698D+02          0.66239D+02         J/(mol K)
 Tunl.Corr.         0.10131D+01          0.10175D+01

 T =  298.15 K;  P =   1.00 atm
                    Harmonic value     SPT anharmonic value
 Qvib               0.45359D-15          0.78844D-15
 QZvib              0.10004D+01          0.10007D+01
 Energy             0.95027D+02          0.93662D+02         kJ/mol
 Enthalpy           0.97506D+02          0.96141D+02         kJ/mol
 Entropy            0.20227D+03          0.20229D+03         J/(mol K)
 Sp.Heat(V)         0.25212D+02          0.25325D+02         J/(mol K)
 Sp.Heat(P)         0.33527D+02          0.33639D+02         J/(mol K)
 Tunl.Corr.         0.32562D+01          0.63539D+01

 T =  500.00 K;  P =   1.00 atm
                    Harmonic value     SPT anharmonic value
 Qvib               0.71938D-09          0.10050D-08
 QZvib              0.10146D+01          0.10195D+01
 Energy             0.10037D+03          0.99087D+02         kJ/mol
 Enthalpy           0.10453D+03          0.10324D+03         kJ/mol
 Entropy            0.22019D+03          0.22040D+03         J/(mol K)
 Sp.Heat(V)         0.28309D+02          0.29046D+02         J/(mol K)
 Sp.Heat(P)         0.36623D+02          0.37360D+02         J/(mol K)
 Tunl.Corr.         0.14170D+01          0.16127D+01

 T = 1000.00 K;  P =   1.00 atm
                    Harmonic value     SPT anharmonic value
 Qvib               0.33011D-04          0.40451D-04
 QZvib              0.12398D+01          0.12884D+01
 Energy             0.11758D+03          0.11683D+03         kJ/mol
 Enthalpy           0.12589D+03          0.12515D+03         kJ/mol
 Entropy            0.24933D+03          0.25027D+03         J/(mol K)
 Sp.Heat(V)         0.40169D+02          0.41315D+02         J/(mol K)
 Sp.Heat(P)         0.48484D+02          0.49630D+02         J/(mol K)
 Tunl.Corr.         0.10860D+01          0.11170D+01

 T = 1500.00 K;  P =   1.00 atm
                    Harmonic value     SPT anharmonic value
 Qvib               0.15840D-02          0.19016D-02
 QZvib              0.17763D+01          0.19107D+01
 Energy             0.13989D+03          0.13967D+03         kJ/mol
 Enthalpy           0.15236D+03          0.15214D+03         kJ/mol
 Entropy            0.27068D+03          0.27205D+03         J/(mol K)
 Sp.Heat(V)         0.48484D+02          0.49411D+02         J/(mol K)
 Sp.Heat(P)         0.56798D+02          0.57725D+02         J/(mol K)
 Tunl.Corr.         0.10370D+01          0.10498D+01

 T = 2000.00 K;  P =   1.00 atm
                    Harmonic value     SPT anharmonic value
 Qvib               0.13865D-01          0.16636D-01
 QZvib              0.26870D+01          0.29689D+01
 Energy             0.16558D+03          0.16576D+03         kJ/mol
 Enthalpy           0.18221D+03          0.18239D+03         kJ/mol
 Entropy            0.28781D+03          0.28942D+03         J/(mol K)
 Sp.Heat(V)         0.53886D+02          0.54595D+02         J/(mol K)
 Sp.Heat(P)         0.62201D+02          0.62910D+02         J/(mol K)
 Tunl.Corr.         0.10206D+01          0.10276D+01

     ==================================================
           Anharmonic Vibrational Spectroscopies
     ==================================================

 WARNING: Anharmonic vibrational spectroscopy is not yet available for
          transition states

 Leave Link  717 at Sun Jun 27 11:54:55 2021, MaxMem=    33554432 cpu:         0.2

 GradGradGradGradGradGradGradGradGradGradGradGradGradGradGradGradGradGrad
 Step number   1 out of a maximum of    2
 All quantities printed in internal units (Hartrees-Bohrs-Radians)
 Second derivative matrix not updated -- analytic derivatives used.
 ITU=  0
     Eigenvalues ---   -0.09406   0.14108   0.15764   0.26449   0.94801
     Eigenvalues ---    1.70446
 Eigenvalue     1 is  -9.41D-02 should be greater than     0.000000 Eigenvector:
                          Y1        Y3        Y2        Y4        Z3
   1                    0.54261  -0.49617  -0.47239  -0.46705   0.06768
                          Z4        X4        X2        X1        Z1
   1                    0.05724   0.05468   0.05186  -0.04749  -0.04104
 Quadratic step=1.112D+00 exceeds max=3.000D-01 adjusted using Lamda=-4.487D-01.
 Angle between NR and scaled steps=  13.55 degrees.
 Angle between quadratic step and forces=  34.03 degrees.
 Linear search not attempted -- first point.
 Variable       Old X    -DE/DX   Delta X   Delta X   Delta X     New X
                                 (Linear)    (Quad)   (Total)
    X1        0.00000  -0.07375   0.00000  -0.04970  -0.07034  -0.07034
    Y1        0.00000  -0.00639   0.00000   0.00031   0.00022   0.00022
    Z1        0.00000  -0.15296   0.00000  -0.04525  -0.06407  -0.06407
    X2        0.00000  -0.03094   0.00000  -0.04445  -0.06477  -0.06477
    Y2        0.00000  -0.00780   0.00000  -0.01566  -0.01266  -0.01266
    Z2        1.77634   0.10900   0.00000   0.05069   0.03188   1.80823
    X3        1.90272  -0.03831   0.00000  -0.06325  -0.08393   1.81879
    Y3        0.00000  -0.01224   0.00000  -0.02499  -0.02347  -0.02347
    Z3       -0.49208  -0.03182   0.00000  -0.05227  -0.07135  -0.56343
    X4       -1.95986   0.14300   0.00000   0.23921   0.21903  -1.74083
    Y4       -0.52514   0.02643   0.00000   0.03984   0.03591  -0.48924
    Z4       -1.20953   0.07578   0.00000   0.12130   0.10354  -1.10599
         Item               Value     Threshold  Converged?
 Maximum Force            0.152963     0.000450     NO 
 RMS     Force            0.077080     0.000300     NO 
 Maximum Displacement     0.219034     0.001800     NO 
 RMS     Displacement     0.085194     0.001200     NO 
 GradGradGradGradGradGradGradGradGradGradGradGradGradGradGradGradGradGrad


 Test job not archived.
 1\1\GINC-XC02N14\Freq\RHF\STO-3G\H3N1\ZYZHU\27-Jun-2021\0\\#t Freq(Anh
 armonic) NoSymm Temperature=2500 IOp(7/33=3)\\[No Title]\\0,1\N,0.,0.,
 0.\H,0.,0.,0.94\H,1.006874,0.,-0.260395\H,-1.037114,-0.277894,-0.64005
 4\\Version=ES64L-G09RevD.01\HF=-55.3753154\RMSD=5.503e-09\RMSF=7.708e-
 02\ZeroPoint=0.0333579\Thermal=0.0736847\Dipole=-0.0053475,-0.2056773,
 0.0287949\DipoleDeriv=-0.1502714,0.1117112,0.0029482,0.1462922,-1.1177
 353,0.1181768,0.0019529,0.0886813,-0.1865939,0.0143402,-0.0569953,-0.0
 409074,-0.0627213,0.3759126,0.0170004,0.0250797,-0.0080466,0.000882,0.
 0255612,-0.0218143,0.0413307,-0.0041605,0.3794876,-0.0681302,-0.052393
 9,-0.0540433,0.069823,0.11037,-0.0329016,-0.0033715,-0.0794104,0.36233
 51,-0.0670471,0.0253613,-0.0265914,0.1158889\Polar=8.226599,1.0427658,
 0.7155859,1.8171654,0.5840104,4.9323169\HyperPolar=0.6063259,-1.024483
 1,-0.8118981,-1.1722734,-8.4582584,-1.2352277,-0.5647244,-2.9296899,0.
 1355191,5.2196062\Quadrupole=1.017843,-1.2843725,0.2665295,0.3266424,0
 .4361338,0.2079534\PG=C01 [X(H3N1)]\NImag=1\\0.68890307,0.04944908,-0.
 08219031,-0.10893028,0.04362123,1.19538085,-0.05354971,-0.01760777,-0.
 01053680,0.04548426,-0.02052328,0.08116400,0.01099447,0.01254698,-0.06
 755193,0.02402882,-0.01979294,-0.91471367,-0.02311225,0.00356764,0.921
 40845,-0.49416191,-0.01850072,0.13373282,-0.00026219,0.00448647,-0.012
 68583,0.49007104,0.00286555,0.02142677,-0.02577234,-0.00058343,0.00062
 863,0.00663256,0.00334910,-0.00050591,0.08601742,-0.01365359,-0.140733
 01,0.06363704,-0.00328296,-0.00808538,-0.13357362,0.01077986,0.1367473
 7,-0.14119144,-0.01334058,-0.01426573,0.00832764,0.00348983,0.01176926
 ,0.00435306,-0.00563122,-0.01608083,0.12851074,-0.03179134,-0.02040046
 ,-0.02884337,0.00564422,-0.01424069,0.00959274,0.01066515,-0.02154949,
 0.00615669,0.01548198,0.05619065,-0.00111595,-0.01017470,-0.13993417,-
 0.02998798,-0.01127915,0.00139060,0.01252664,0.00835992,0.01207103,0.0
 1857730,0.01309393,0.12647254\\0.07374541,0.00638683,0.15296321,0.0309
 3855,0.00779878,-0.10900338,0.03831423,0.01224383,0.03182045,-0.142998
 19,-0.02642944,-0.07578028\\0.04987374,0.13662657,-0.08436748,-0.04431
 871,0.25980495,0.07759256,-0.00479389,-0.00207873,0.04014877,-0.002740
 21,0.01878353,0.02259186,-0.39326689,-0.00160706,-0.01782630,0.0269561
 4,-0.27225204,-0.03925334,-0.03050949,0.32455954,0.02773860,-0.0182855
 6,-0.11469129,0.01689818,0.00468655,-0.01975376,0.00133161,0.01164967,
 -0.20453550,0.02612435,0.08726854,0.02346480,0.00051396,-0.03051595,0.
 15466149,-0.01779417,0.03087566,0.02624162,-0.02139422,-0.00833164,0.0
 3546013,0.00722858,-0.02076071,-0.04557379,0.01103647,-0.02679429,-0.0
 1985655,-0.01272825,0.00284754,0.00257729,0.00222174,0.00194934,0.0264
 0921,-0.00178330,0.02199742,0.04912540,0.03565126,0.04619340,-0.019779
 01,-0.00527952,-0.02179155,-0.02021645,-0.00884414,-0.01612796,-0.0091
 2995,-0.02152761,-0.01351309,-0.01379452,-0.01694500,-0.00130763,0.033
 24721,0.00428617,0.00253092,-0.01117880,0.00312917,0.01228981,-0.00827
 389,0.00952966,0.02265690,0.00170040,0.01416138,0.37630327,0.08165986,
 0.01002770,0.01077486,-0.00983606,-0.37484197,-0.01507733,-0.00393079,
 0.02678203,-0.06816315,-0.00456446,-0.01709654,-0.33241231,-0.06256954
 ,0.04261550,0.31560030,0.06073202,-0.03612538,0.03637997,0.02464910,0.
 01238054,-0.00411913,0.00012625,0.01217646,-0.01986254,0.02955678,-0.0
 5870891,-0.00738697,0.00244908,0.02090035,-0.00192789,-0.02282861,0.02
 182187,0.01741221,-0.00486911,-0.03436810,0.02745341,-0.00080490,-0.02
 771750,-0.03115242,0.01001957,0.05984266,-0.06981172,-0.01651344,-0.01
 384184,0.00842160,0.00836901,0.00463556,-0.01239830,-0.00917725,-0.013
 71320,0.07378842,-0.02732639,0.01776550,-0.00610975,0.01195144,-0.0305
 8584,0.00376541,-0.00194674,0.01598669,-0.00434556,0.01732168,-0.00316
 634,-0.06130316,-0.01422122,-0.01827510,0.03178826,0.00823603,0.021227
 38,0.00659542,-0.00070471,0.00224293,0.02291948,0.00668989,-0.00519522
 ,-0.23242268,-0.00991893,0.00857639,0.30765017,-0.01797846,-0.26166785
 ,-0.00247069,-0.00581582,-0.24435409,0.03645062,-0.00079332,-0.0396688
 9,-0.00760607,0.00180031,0.00600262,-0.19738649,-0.00553092,0.09824861
 ,0.17807658,0.00509231,-0.07127177,0.08023012,-0.01998356,-0.13209648,
 -0.02971003,-0.00098262,0.02003011,-0.06708488,-0.02748768,-0.01120292
 ,0.00429928,0.00145548,0.03940550,0.00005528,0.01986735,-0.00802892,-0
 .19212676,-0.00075192,0.08656764,0.05107445,0.00149992,-0.03313037,0.1
 2163414,-0.00593651,-0.04609529,0.15466325,0.03571831,0.06880041,-0.00
 426990,-0.00002437,-0.00072021,0.01656479,0.00616486,0.01941817,-0.166
 95813,0.03819993,0.04229542,0.02128525,0.00256003,-0.00573923,0.000383
 33,0.00109883,-0.02017366,0.00518850,-0.04185879,-0.01638253,0.0818630
 8,0.02426130,0.07685159,0.01520306,0.00101383,0.00615353,-0.00956777,0
 .00158195,-0.00734198,-0.08749838,-0.02685708,-0.07566314,0.41258403,0
 .10497043,0.03168121,0.36618041,0.04040172,0.11843544,-0.01744342,0.00
 300033,-0.06760318,0.02940260,0.00246591,-0.04539382,0.02396202,0.0011
 6942,0.01096759,-0.08770729,0.01336077,-0.01899692,0.06361080,-0.01347
 730,0.04084045,-0.04396961,-0.01061174,-0.07558286,-0.01416432,-0.0028
 4412,0.01694782,0.05156150,-0.00610726,-0.01131961,0.00363710,-0.00228
 789,0.02745799,-0.00218340,0.00967063,-0.00321957,-0.07517473,0.004586
 42,0.04092733,0.02564549,-0.00132806,-0.01638495,0.05383365,-0.0051744
 0,-0.02642342,-0.35117100,-0.09735902,-0.22299437,0.00220515,-0.000791
 22,0.00714867,0.00657244,-0.00127548,-0.00430441,0.34239341,-0.1013290
 9,0.02503222,-0.06800084,-0.00188186,0.00696824,0.00229992,0.00378522,
 -0.01291882,0.00191604,0.09942573,-0.01908164,-0.20329839,-0.05834891,
 -0.14036586,-0.02165310,-0.00915666,-0.00545858,0.00480139,0.00372069,
 0.00188104,0.22015011,0.06378487,0.14394340,-1.45597154,0.00456922,0.2
 0977942,0.48447706,0.01616259,-0.01177395,0.01593870,-0.00347633,-0.00
 113149,-0.00260996,0.00257864,0.02142580,-0.00825156,0.00036213,0.0102
 7843,-0.05570676,-0.01056758,0.10744853,0.04328140,0.00595072,-0.13410
 494,1.47777742,0.01553274,-0.43963582,-0.01355377,-0.00366478,0.005884
 68,-1.46756466,0.00462743,-0.25723029,0.00931315,0.00021300,-0.0202157
 8,-0.00056734,-0.00682472,0.27622916,-0.40177396,0.00397534,-0.0807809
 2,-0.04536207,0.00251798,0.02212571,0.43871951,-0.00738525,0.06208999,
 -0.03774459,-0.01662563,-0.04370975,0.00022503,0.00072400,0.00654067,0
 .00334101,0.00198430,0.00841652,0.03417855,-0.01177529,0.02602506,-0.0
 1722419,0.00290119,-0.01148845,0.00518421,-0.00504323,0.00121691,0.000
 89192,0.01391732,-0.01575352,-0.02699634,-0.00957035,-0.01489365,0.003
 21215,-0.00021714,0.00453070,-0.00496837,-0.00136056,-0.00343477,0.028
 75256,0.01114805,0.01379773,0.64894776,0.01276785,0.44419600,-0.011394
 47,-0.00019455,-2.84656163,-0.47084811,0.00864631,0.02513396,0.4512674
 5,0.00951400,-0.54881588,-0.00004147,-0.01093181,0.56722071,-0.0005513
 2,0.01669343,2.77973201,-0.00029759,-0.00539858,-2.75933973,-0.1431570
 3,-0.01073797,0.00233658,0.01782493,0.00079875,-0.00035785,0.11796045,
 -0.00285929,0.07018984,0.00231438,0.00070107,-0.01558712,-0.00582200,0
 .00316807,-0.04004945,0.04471852,-0.00534290,0.05725436,-0.04083603,0.
 00094709,-0.01717075,-0.00468061,0.00197236,-0.03550022,-0.03494261,-0
 .01067620,-0.01607606,0.00175574,0.00061906,0.00120677,0.00737166,-0.0
 0100985,0.00079812,0.02581522,-0.01942256,0.03443003,-0.00207836,0.001
 58442,-0.00281771,-0.00547285,0.00677115,-0.01455327,0.00242344,0.0110
 6699,-0.01705905,-0.03277273,-0.01115598,0.00957527,0.01599967,0.00449
 296,-0.00322154,0.00270188,0.00153525,-0.00458339,0.01407118,0.0051277
 7,-0.00177034,-0.40586451,-0.06727951,0.69584734,0.08919128,-0.0415250
 8,-0.88522245,-0.06308906,0.03355127,0.01322739,0.08169784,0.04162769,
 -0.38776690,-0.05341772,-0.03222304,0.37541885,-0.01515557,0.00413006,
 0.81788637,-0.00760904,0.03018314,-0.77368295,0.40292285,0.01114602,-0
 .12312906,-0.01728846,-0.00897777,0.01957165,-0.37719500,-0.03046559,-
 0.22541677,0.05059512,0.00689837,0.00004229,-0.01739023,0.01371593,0.1
 9971235,-0.09466147,0.02266763,0.02347668,-0.00792648,0.01139309,-0.02
 735617,0.09879039,-0.02839095,0.00573753,0.06603073,0.02258223,0.02071
 039,-0.00132033,-0.00042687,0.00319296,-0.00843939,0.00985129,0.003797
 56,-0.05627101,0.05611742,-0.08266367,0.04434768,-0.00822659,0.0123057
 6,-0.01692297,-0.01588418,0.02566213,-0.00566977,-0.03200665,0.0446957
 8,0.02062576,0.01472739,0.04385940,0.00230813,0.01184150,-0.01684724,0
 .00476702,-0.00481394,-0.00185804,-0.02770091,-0.02175494,-0.02515412,
 0.14018717,0.02272204,0.09486673,-0.00838626,-0.00413855,-1.24381951,-
 0.35177819,-0.03972359,0.03805869,0.38041311,-0.04009296,-0.13434990,0
 .00061805,0.04532491,0.12685454,0.03385789,0.01037768,1.18794250,-0.02
 658755,0.00405519,-1.12774380,0.05918537,-0.00785662,-0.02700947,-0.00
 064666,0.00155866,0.00833457,-0.04311925,-0.00461554,-0.00365712,0.004
 32231,0.00083950,0.01365842,-0.00931903,0.00640096,-0.01652355,0.00181
 050,0.00186109,0.03475313,-0.01410487,-0.00731305,-0.03584591,0.016227
 27,0.00812777,0.00927211,0.15240566,0.02485817,-0.00266296,-0.02798826
 ,-0.00679060,-0.01560491,-0.01541946,-0.00262492,-0.00393290,-0.108997
 94,0.02198646,0.04314029,-0.00080181,-0.00644082,-0.00616307,-0.005113
 85,-0.00010300,0.00652225,-0.00267581,-0.01544265,-0.04349948,-0.02728
 213,-0.00810022,0.02112389,0.00263374,0.00263981,-0.02435278,0.0024476
 3,-0.00313105,-0.00817933,0.02220077,0.00859146,0.01140822,-0.39059761
 ,0.03687056,0.02755963,0.08448701,0.05682778,-0.34630503,-0.10528230,-
 0.01352103,0.10075631,0.15027843,-0.00377914,-0.03654293,0.00372097,0.
 01150451,0.01578130,0.04013975,-0.00122198,0.49092914,-0.09886579,-0.0
 0364630,-0.44588310,0.58026100,0.01218082,-0.06482607,-0.04758910,-0.0
 0457865,0.05037348,-0.50905341,0.01824973,-0.02105023,-0.01893030,-0.0
 0221403,0.01579003,0.00329469,-0.00716270,0.00333314,-0.00192560,-0.02
 429936,-0.09865063,-0.00083592,0.00528542,-0.03095431,0.00539500,0.018
 99996,0.13464458,-0.08438108,-0.03553036,-0.12041725,0.00259297,-0.003
 14672,0.00835256,-0.02361850,-0.00887300,-0.00263347,0.10540661,-0.051
 34115,0.03003352,-0.04161844,0.00423054,0.00497159,0.00157359,-0.00043
 947,0.00192706,0.00001398,0.04755007,-0.03693217,-0.12270115,-0.031306
 43,-0.04597348,-0.00105460,-0.00536008,-0.01409173,0.00905759,-0.00336
 435,-0.00503964,0.11469816,0.04003087,0.06510484,0.68857053,0.26343373
 ,-0.11662401,0.61305322,0.13592227,-0.02754790,-0.00222416,0.00164612,
 0.01196221,0.01638720,0.00831210,-0.02847622,-0.00076675,0.00007542,0.
 00087489,-0.02673529,-0.00477595,0.08370373,0.00578159,0.00312401,-0.0
 6234535,0.16689327,-0.00342225,-0.06073036,-0.01420727,-0.00256289,0.0
 1067037,-0.16153842,-0.00136426,-0.01474506,0.00421777,0.00044437,0.00
 973916,0.00010715,0.00335767,0.01374782,-0.03976984,-0.00130254,0.0063
 9029,-0.00238566,0.00429670,-0.00831949,0.04489456,-0.00093455,0.01458
 218,-0.85323963,-0.26165760,-0.56428508,0.00004423,-0.00582463,0.01028
 333,0.00885241,-0.00243777,-0.00273906,0.84434299,-0.27038157,0.159845
 30,-0.13937328,-0.00216590,0.01786216,0.00154479,0.00262747,-0.0087419
 2,-0.00205961,0.26992001,-0.16896554,-0.54654809,-0.12984377,-0.062546
 11,-0.01535815,-0.00665396,-0.01303888,0.00516542,-0.00339037,-0.01265
 298,0.55674082,0.13988810,0.08823798,4.28172122,-0.01930272,-1.0004265
 2,-1.27376700,0.00086392,-0.75493308,-0.02524649,0.01317340,0.00452435
 ,-0.01896483,0.00404863,-0.03883308,-0.00142025,-0.00406070,0.00106409
 ,0.03842408,0.00359049,0.01882124,-0.02699959,-0.00102551,0.02050198,-
 4.26365155,0.00167114,1.27227452,0.04508418,0.00168284,-0.01320219,4.2
 1938177,0.00565819,1.05964023,-0.00437439,-0.00376019,0.03098339,-0.00
 132058,-0.00067742,-1.09965642,1.22856745,-0.00163516,0.73059157,0.023
 06166,-0.00106682,-0.03987568,-1.24694425,0.00655816,-0.68996441,0.007
 17684,0.00445818,-0.00303188,-0.00087287,-0.00167077,0.00177770,-0.000
 81440,-0.00122058,-0.00468486,-0.00548957,0.00959589,-0.02038062,0.004
 93073,-0.00535250,0.00678559,-0.00124439,-0.00267655,0.00903280,-0.003
 85618,-0.00156684,0.00456222,0.00677546,-0.00281925,0.00552027,-0.0005
 8642,0.00351259,0.00055246,-0.01212808,-0.00086319,-0.00075149,0.00593
 904,0.00016984,-0.00532124,-2.16016737,-0.00166436,-2.14523311,0.10672
 435,-0.04953755,8.77169149,2.15162117,-0.00297336,-0.11868738,-2.11595
 717,-0.00438868,2.20691951,0.02085798,0.00915158,-2.24019216,-0.091240
 74,0.02495515,-8.77560998,0.10793584,-0.01663899,8.71183881,0.00046178
 ,0.00220554,-0.00720419,-0.02885302,-0.00264844,0.00199533,0.02644375,
 -0.00372327,-0.03191124,0.01199736,-0.00049171,0.02018503,-0.00188244,
 0.00234136,0.00261159,-0.01948341,0.01385530,-0.00419569,0.01381177,-0
 .00275805,0.04930028,0.00481127,-0.00581310,-0.04235060,0.00808443,0.0
 0243218,0.01916722,-0.00681098,-0.00211446,-0.01869043,0.00194749,0.00
 187362,0.00086037,-0.00322094,0.00977632,-0.02977516,0.01668221,-0.005
 68651,0.01308762,-0.00643372,-0.00189847,0.00911463,-0.00528416,-0.002
 19134,0.00757291,0.00399980,0.01072710,0.00811418,-0.00306023,-0.00146
 094,0.01447088,0.00039760,-0.00430182,-0.00275399,-0.00133716,-0.00496
 433,-0.01983107\\@


 THE CHYMISTS ARE A STRANGE CLASS OF MORTALS IMPELLED
 BY AN ALMOST INSANE IMPULSE TO SEEK THEIR PLEASURE
 AMONG SMOKE AND VAPOR, SOOT AND FLAME, POISONS AND
 POVERTY; YET AMONG ALL THESE EVILS I SEEM TO LIVE
 SO SWEETLY, THAT I MAY DIE IF I WOULD CHANGE PLACES
 WITH THE PERSIAN KING.
   --  JOHANN JOACHIM BECHER, 1635-1682
 ACTA LABORATORII CHYMICA MONACENSIS, 1669
 Job cpu time:       0 days  0 hours  0 minutes 46.7 seconds.
 File lengths (MBytes):  RWF=     43 Int=      0 D2E=      0 Chk=     38 Scr=      1
 Normal termination of Gaussian 09 at Sun Jun 27 11:54:55 2021.
