 Entering Gaussian System, Link 0=/share/apps/gaussian/G16B01/AVX2/g16/g16
 Initial command:
 /share/apps/gaussian/G16B01/AVX2/g16/l1.exe "/scratch/scr/zyzhu/xc02n14/202106271152.19080/Gau-19101.inp" -scrdir="/scratch/scr/zyzhu/xc02n14/202106271152.19080/"
 Entering Link 1 = /share/apps/gaussian/G16B01/AVX2/g16/l1.exe PID=     19102.
  
 Copyright (c) 1988-2017, Gaussian, Inc.  All Rights Reserved.
  
 This is part of the Gaussian(R) 16 program.  It is based on
 the Gaussian(R) 09 system (copyright 2009, Gaussian, Inc.),
 the Gaussian(R) 03 system (copyright 2003, Gaussian, Inc.),
 the Gaussian(R) 98 system (copyright 1998, Gaussian, Inc.),
 the Gaussian(R) 94 system (copyright 1995, Gaussian, Inc.),
 the Gaussian 92(TM) system (copyright 1992, Gaussian, Inc.),
 the Gaussian 90(TM) system (copyright 1990, Gaussian, Inc.),
 the Gaussian 88(TM) system (copyright 1988, Gaussian, Inc.),
 the Gaussian 86(TM) system (copyright 1986, Carnegie Mellon
 University), and the Gaussian 82(TM) system (copyright 1983,
 Carnegie Mellon University). Gaussian is a federally registered
 trademark of Gaussian, Inc.
  
 This software contains proprietary and confidential information,
 including trade secrets, belonging to Gaussian, Inc.
  
 This software is provided under written license and may be
 used, copied, transmitted, or stored only in accord with that
 written license.
  
 The following legend is applicable only to US Government
 contracts under FAR:
  
                    RESTRICTED RIGHTS LEGEND
  
 Use, reproduction and disclosure by the US Government is
 subject to restrictions as set forth in subparagraphs (a)
 and (c) of the Commercial Computer Software - Restricted
 Rights clause in FAR 52.227-19.
  
 Gaussian, Inc.
 340 Quinnipiac St., Bldg. 40, Wallingford CT 06492
  
  
 ---------------------------------------------------------------
 Warning -- This program may not be used in any manner that
 competes with the business of Gaussian, Inc. or will provide
 assistance to any competitor of Gaussian, Inc.  The licensee
 of this program is prohibited from giving any competitor of
 Gaussian, Inc. access to this program.  By using this program,
 the user acknowledges that Gaussian, Inc. is engaged in the
 business of creating and licensing software in the field of
 computational chemistry and represents and warrants to the
 licensee that it is not a competitor of Gaussian, Inc. and that
 it will not use this program in any manner prohibited above.
 ---------------------------------------------------------------
  

 Cite this work as:
 Gaussian 16, Revision B.01,
 M. J. Frisch, G. W. Trucks, H. B. Schlegel, G. E. Scuseria, 
 M. A. Robb, J. R. Cheeseman, G. Scalmani, V. Barone, 
 G. A. Petersson, H. Nakatsuji, X. Li, M. Caricato, A. V. Marenich, 
 J. Bloino, B. G. Janesko, R. Gomperts, B. Mennucci, H. P. Hratchian, 
 J. V. Ortiz, A. F. Izmaylov, J. L. Sonnenberg, D. Williams-Young, 
 F. Ding, F. Lipparini, F. Egidi, J. Goings, B. Peng, A. Petrone, 
 T. Henderson, D. Ranasinghe, V. G. Zakrzewski, J. Gao, N. Rega, 
 G. Zheng, W. Liang, M. Hada, M. Ehara, K. Toyota, R. Fukuda, 
 J. Hasegawa, M. Ishida, T. Nakajima, Y. Honda, O. Kitao, H. Nakai, 
 T. Vreven, K. Throssell, J. A. Montgomery, Jr., J. E. Peralta, 
 F. Ogliaro, M. J. Bearpark, J. J. Heyd, E. N. Brothers, K. N. Kudin, 
 V. N. Staroverov, T. A. Keith, R. Kobayashi, J. Normand, 
 K. Raghavachari, A. P. Rendell, J. C. Burant, S. S. Iyengar, 
 J. Tomasi, M. Cossi, J. M. Millam, M. Klene, C. Adamo, R. Cammi, 
 J. W. Ochterski, R. L. Martin, K. Morokuma, O. Farkas, 
 J. B. Foresman, and D. J. Fox, Gaussian, Inc., Wallingford CT, 2016.
 
 ******************************************
 Gaussian 16:  ES64L-G16RevB.01 20-Dec-2017
                27-Jun-2021 
 ******************************************
 %nproc=4
 Will use up to    4 processors via shared memory.
 -------------------------------------------------------
 #t Freq(Anharmonic) NoSymm Temperature=2500 IOp(7/33=3)
 -------------------------------------------------------
 ----------
 [No Title]
 ----------
 Symbolic Z-matrix:
 Charge =  0 Multiplicity = 1
 N                     0.        0.        0. 
 H                     0.        0.        0.94 
 H                     1.00687   0.       -0.2604 
 H                    -1.03711  -0.27789  -0.64005 
 
 Numerical evaluation of third derivatives.
 Nuclear step= 0.010000 Angstroms, electric field step= 0.000333 atomic units, NStep=1.

 GradGradGradGradGradGradGradGradGradGradGradGradGradGradGradGradGradGrad
 Initialization pass.
 Number of steps in this run=      2 maximum allowed number of steps=      2.
 GradGradGradGradGradGradGradGradGradGradGradGradGradGradGradGradGradGrad

                    Distance matrix (angstroms):
                    1          2          3          4
     1  N    0.000000
     2  H    0.940000   0.000000
     3  H    1.040000   1.566762   0.000000
     4  H    1.250000   1.910341   2.097440   0.000000
 Symmetry turned off by external request.
 Framework group  C1[X(H3N)]
 Deg. of freedom     6
 Rotational constants (GHZ):         415.9837838         214.4587340         143.1803693
     8 basis functions,    24 primitive gaussians,     8 cartesian basis functions
     5 alpha electrons        5 beta electrons
       nuclear repulsion energy        11.3328980416 Hartrees.
 NAtoms=    4 NActive=    4 NUniq=    4 SFac= 1.00D+00 NAtFMM=   60 NAOKFM=F Big=F
 ExpMin= 1.69D-01 ExpMax= 9.91D+01 ExpMxC= 9.91D+01 IAcc=3 IRadAn=         5 AccDes= 0.00D+00
 Harris functional with IExCor=  205 and IRadAn=       5 diagonalized for initial guess.
 HarFok:  IExCor=  205 AccDes= 0.00D+00 IRadAn=         5 IDoV= 1 UseB2=F ITyADJ=14
 ICtDFT=  3500011 ScaDFX=  1.000000  1.000000  1.000000  1.000000
 FoFCou: FMM=F IPFlag=           0 FMFlag=      100000 FMFlg1=           0
         NFxFlg=           0 DoJE=T BraDBF=F KetDBF=T FulRan=T
         wScrn=  0.000000 ICntrl=       500 IOpCl=  0 I1Cent=   200000004 NGrid=           0
         NMat0=    1 NMatS0=      1 NMatT0=    0 NMatD0=    1 NMtDS0=    0 NMtDT0=    0
 Symmetry not used in FoFCou.
 SCF Done:  E(RHF) =  -55.3753154197     A.U. after   10 cycles
            NFock= 10  Conv=0.55D-08     -V/T= 2.0065
 NROrb=      8 NOA=     5 NOB=     5 NVA=     3 NVB=     3
 Symmetrizing basis deriv contribution to polar:
 IMax=3 JMax=2 DiffMx= 0.00D+00
 Calling FoFCou, ICntrl=  3107 FMM=F I1Cent=   0 AccDes= 0.00D+00.
 End of G2Drv F.D. properties file   721 does not exist.
 End of G2Drv F.D. properties file   722 does not exist.
 End of G2Drv F.D. properties file   788 does not exist.
          IDoAtm=1111
 End of Minotr F.D. properties file   721 does not exist.
 End of Minotr F.D. properties file   722 does not exist.
 End of Minotr F.D. properties file   788 does not exist.

 **********************************************************************

            Population analysis using the SCF Density.

 **********************************************************************

 Alpha  occ. eigenvalues --  -15.25579  -1.02528  -0.54604  -0.52463  -0.30104
 Alpha virt. eigenvalues --    0.42903   0.73757   0.83504
          Condensed to atoms (all electrons):
 Mulliken charges:
               1
     1  N   -0.492232
     2  H    0.174705
     3  H    0.162387
     4  H    0.155139
 Sum of Mulliken charges =   0.00000
 Mulliken charges with hydrogens summed into heavy atoms:
               1
     1  N    0.000000
 APT charges:
               1
     1  N   -0.484867
     2  H    0.130378
     3  H    0.158291
     4  H    0.196198
 Sum of APT charges =   0.00000
 APT charges with hydrogens summed into heavy atoms:
               1
     1  N    0.000000
 Electronic spatial extent (au):  <R**2>=             26.1625
 Charge=              0.0000 electrons
 Dipole moment (field-independent basis, Debye):
    X=             -0.0136    Y=             -0.5228    Z=              0.0732  Tot=              0.5281
  Exact polarizability:   8.227   1.043   0.716   1.817   0.584   4.932
 Approx polarizability:   6.432   0.856   0.469   1.467   0.485   3.794
 GetPCM: File not found, return IValue=0.
 SCFChk:  SCF convergence  5.50D-09 required  1.00D-08
 Pair potential:
 LT D matrices:
                1             2             3             4             5 
      1  0.207505D+01
      2 -0.283892D+00  0.119237D+01
      3  0.669484D-02 -0.538887D-01  0.674045D+00
      4 -0.331159D-01  0.171456D+00 -0.151387D+00  0.194426D+01
      5  0.590781D-02 -0.712106D-01 -0.160022D-02 -0.119335D+00  0.708016D+00
      6 -0.842473D-01  0.184342D+00 -0.689287D-01 -0.245623D-01  0.583029D+00
      7 -0.833510D-01  0.233177D+00  0.524323D+00 -0.437363D-01 -0.254569D+00
      8 -0.897879D-01  0.329407D+00 -0.439863D+00 -0.180687D+00 -0.328907D+00
                6             7             8 
      6  0.535622D+00
      7 -0.211537D+00  0.551596D+00
      8 -0.179513D+00 -0.168701D+00  0.570959D+00
 PT:          0:
                1             2             3             4             5 
      1  0.207505D+01
      2 -0.283892D+00  0.119237D+01
      3  0.669484D-02 -0.538887D-01  0.674045D+00
      4 -0.331159D-01  0.171456D+00 -0.151387D+00  0.194426D+01
      5  0.590781D-02 -0.712106D-01 -0.160022D-02 -0.119335D+00  0.708016D+00
      6 -0.842473D-01  0.184342D+00 -0.689287D-01 -0.245623D-01  0.583029D+00
      7 -0.833510D-01  0.233177D+00  0.524323D+00 -0.437363D-01 -0.254569D+00
      8 -0.897879D-01  0.329407D+00 -0.439863D+00 -0.180687D+00 -0.328907D+00
                6             7             8 
      6  0.535622D+00
      7 -0.211537D+00  0.551596D+00
      8 -0.179513D+00 -0.168701D+00  0.570959D+00
 WT:          0:
                1             2             3             4             5 
      1  0.302165D+02
      2  0.593565D+00  0.119835D+01
      3  0.393112D-01  0.190050D-01  0.356447D+00
      4 -0.244301D-01  0.236130D-01 -0.335208D-01  0.587997D+00
      5  0.577610D-01  0.286697D-01 -0.734448D-02 -0.281976D-01  0.385179D+00
      6 -0.314806D+00  0.247962D+00 -0.325050D-01 -0.703987D-02  0.330592D+00
      7 -0.266326D+00  0.246986D+00  0.288875D+00 -0.118362D-01 -0.130322D+00
      8 -0.194665D+00  0.254645D+00 -0.227456D+00 -0.734389D-01 -0.165886D+00
                6             7             8 
      6  0.335530D+00
      7 -0.813171D-01  0.328157D+00
      8 -0.701554D-01 -0.691285D-01  0.311254D+00
 FFX after V2NN 
                1             2             3             4             5 
      1  0.000000D+00
      2  0.000000D+00  0.000000D+00
      3  0.000000D+00  0.000000D+00  0.000000D+00
      4  0.000000D+00  0.000000D+00  0.000000D+00  0.987699D+00
      5  0.000000D+00  0.000000D+00  0.000000D+00  0.293886D+00 -0.262337D+01
      6  0.000000D+00  0.000000D+00  0.000000D+00  0.628763D-02  0.181371D+00
      7  0.000000D+00  0.000000D+00  0.000000D+00  0.124887D+01  0.000000D+00
      8  0.000000D+00  0.000000D+00  0.000000D+00  0.000000D+00  0.124887D+01
      9  0.000000D+00  0.000000D+00  0.000000D+00  0.000000D+00  0.000000D+00
     10  0.000000D+00  0.000000D+00  0.000000D+00 -0.167087D+01  0.000000D+00
     11  0.000000D+00  0.000000D+00  0.000000D+00  0.000000D+00  0.922149D+00
     12  0.000000D+00  0.000000D+00  0.000000D+00  0.670599D+00  0.000000D+00
     13  0.000000D+00  0.000000D+00  0.000000D+00 -0.565702D+00 -0.293886D+00
     14  0.000000D+00  0.000000D+00  0.000000D+00 -0.293886D+00  0.452348D+00
     15  0.000000D+00  0.000000D+00  0.000000D+00 -0.676887D+00 -0.181371D+00
                6             7             8             9            10 
      6  0.163567D+01
      7  0.000000D+00 -0.124213D+01
      8  0.000000D+00  0.503589D-02 -0.130731D+01
      9 -0.249774D+01 -0.282795D-01  0.767223D-02  0.254943D+01
     10  0.670599D+00 -0.920792D-02  0.000000D+00  0.569126D-01  0.170977D+01
     11  0.000000D+00  0.000000D+00  0.385296D-01  0.000000D+00  0.622064D-02
     12  0.748720D+00  0.569126D-01  0.000000D+00 -0.293217D-01 -0.719013D+00
     13 -0.676887D+00  0.246129D-02 -0.503589D-02 -0.286331D-01 -0.296949D-01
     14 -0.181371D+00 -0.503589D-02  0.199061D-01 -0.767223D-02 -0.622064D-02
     15  0.113354D+00 -0.286331D-01 -0.767223D-02 -0.223674D-01 -0.849864D-02
               11            12            13            14            15 
     11 -0.975892D+00
     12  0.115545D-02 -0.733880D+00
     13 -0.622064D-02 -0.849864D-02  0.592935D+00
     14  0.152139D-01 -0.115545D-02  0.305142D+00 -0.487468D+00
     15 -0.115545D-02  0.144810D-01  0.714018D+00  0.190199D+00 -0.105468D+00
 Entering OneElI...
 OneElI was handed   104856906 working-precision words.
 Calculate overlap and kinetic energy integrals
    NBasis =   8  MinDer = 2  MaxDer = 2
 Requested accuracy = 0.1000D-12
 ShPair: Thresh= 1.00D-13 NBox=     0 BxSize= 0.00D+00 RnKept= 3.96D+00
         NSMCal=                   15 NSMKep=                  15
 PrmmSu-InSpLW:  IPartL=    0 NPrtUS=    4 NPrtUL=    1 DoSpLW=F IThBeg=    0 IThEnd=    3 NThAct=    4.
 PrSmSu:  IncTry=   512 NBBP=             15 NTPThr=   100 NPartT=    4 Incr=           1 LDynOK=F GPUOK=F.
 PrsmSu:  NPrtUS=   4 ThrOK=T IAlg=2 LenDen=           0 ISkipM=0 DoSpLW=F IThBeg=    0 IThEnd=    3.
 Prism:   IPart=     0 DynPar=F LinDyn=F Incr=           1.
 PRISM was handed    26212026 working-precision words and    15 shell-pairs
 PRISM was handed    26212026 working-precision words and    15 shell-pairs
 PRISM was handed    26212026 working-precision words and    15 shell-pairs
 PRISM was handed    26212026 working-precision words and    15 shell-pairs
 IPart=  1 NShTot=           4 NBatch=           2 AvBLen=         2.0
 IPart=  2 NShTot=           3 NBatch=           2 AvBLen=         1.5
 PrsmSu-ThDecC:  IPartSL=    1    0 NPrtUSL=    4    1 IThBeg=    0 IThEnd=    3 CPU=   -1 GPU=   -1 NThAct=    4.
 IPart=  3 NShTot=           3 NBatch=           2 AvBLen=         1.5
 PrsmSu-ThDecC:  IPartSL=    2    0 NPrtUSL=    4    1 IThBeg=    0 IThEnd=    3 CPU=   -1 GPU=   -1 NThAct=    3.
 PrsmSu-ThDecC:  IPartSL=    3    0 NPrtUSL=    4    1 IThBeg=    0 IThEnd=    3 CPU=   -1 GPU=   -1 NThAct=    2.
 IPart=  0 NShTot=           5 NBatch=           3 AvBLen=         1.7
 PrsmSu-ThDecC:  IPartSL=    0    0 NPrtUSL=    4    1 IThBeg=    0 IThEnd=    3 CPU=   -1 GPU=   -1 NThAct=    1.
 PrSmSu:  NxtVal=              5.
 FFX after D2ST 
                1             2             3             4             5 
      1  0.000000D+00
      2  0.000000D+00  0.000000D+00
      3  0.000000D+00  0.000000D+00  0.000000D+00
      4  0.000000D+00  0.000000D+00  0.000000D+00  0.907478D+00
      5  0.000000D+00  0.000000D+00  0.000000D+00  0.461011D+00 -0.409542D+01
      6  0.000000D+00  0.000000D+00  0.000000D+00  0.275765D+00  0.276381D+00
      7  0.000000D+00  0.000000D+00  0.000000D+00  0.190554D+01  0.000000D+00
      8  0.000000D+00  0.000000D+00  0.000000D+00  0.000000D+00  0.190554D+01
      9  0.000000D+00  0.000000D+00  0.000000D+00 -0.613451D-01 -0.197149D-01
     10  0.000000D+00  0.000000D+00  0.000000D+00 -0.198152D+01 -0.260993D-01
     11  0.000000D+00  0.000000D+00  0.000000D+00 -0.260993D-01  0.144870D+01
     12  0.000000D+00  0.000000D+00  0.000000D+00  0.806725D+00  0.674973D-02
     13  0.000000D+00  0.000000D+00  0.000000D+00 -0.831497D+00 -0.434911D+00
     14  0.000000D+00  0.000000D+00  0.000000D+00 -0.434911D+00  0.741185D+00
     15  0.000000D+00  0.000000D+00  0.000000D+00 -0.102115D+01 -0.263416D+00
                6             7             8             9            10 
      6  0.110439D+01
      7 -0.613451D-01 -0.191093D+01
      8 -0.197149D-01  0.304181D-02 -0.194399D+01
      9 -0.259983D+01  0.517793D-01  0.243492D-01  0.261893D+01
     10  0.806725D+00  0.993227D-03  0.000000D+00  0.268610D-01  0.199708D+01
     11  0.674973D-02  0.000000D+00  0.235239D-01  0.000000D+00  0.300639D-01
     12  0.126085D+01  0.268610D-01  0.000000D+00 -0.849984D-02 -0.828170D+00
     13 -0.102115D+01  0.439181D-02 -0.304181D-02 -0.172952D-01 -0.165468D-01
     14 -0.263416D+00 -0.304181D-02  0.149289D-01 -0.463422D-02 -0.396464D-02
     15  0.234583D+00 -0.172952D-01 -0.463422D-02 -0.106054D-01 -0.541649D-02
               11            12            13            14            15 
     11 -0.148429D+01
     12 -0.601332D-02 -0.126396D+01
     13 -0.396464D-02 -0.541649D-02  0.843652D+00
     14  0.120752D-01 -0.736409D-03  0.441918D+00 -0.768189D+00
     15 -0.736409D-03  0.116081D-01  0.104386D+01  0.268787D+00 -0.235586D+00
 Entering OneElI...
 OneElI was handed   104856906 working-precision words.
 Calculate potential energy integrals
    NBasis =   8  MinDer = 2  MaxDer = 2
 Requested accuracy = 0.1000D-12
 ShPair: Thresh= 1.00D-13 NBox=     0 BxSize= 0.00D+00 RnKept= 3.96D+00
         NSMCal=                   15 NSMKep=                  15
 PrmmSu-InSpLW:  IPartL=    0 NPrtUS=    4 NPrtUL=    1 DoSpLW=F IThBeg=    0 IThEnd=    3 NThAct=    4.
 PrSmSu:  IncTry=   512 NBBP=             60 NTPThr=   100 NPartT=    4 Incr=           1 LDynOK=F GPUOK=F.
 PrsmSu:  NPrtUS=   4 ThrOK=T IAlg=2 LenDen=           0 ISkipM=0 DoSpLW=F IThBeg=    0 IThEnd=    3.
 Prism:   IPart=     0 DynPar=F LinDyn=F Incr=           1.
 PRISM was handed    26211983 working-precision words and    15 shell-pairs
 PRISM was handed    26211983 working-precision words and    15 shell-pairs
 PRISM was handed    26211983 working-precision words and    15 shell-pairs
 PRISM was handed    26211983 working-precision words and    15 shell-pairs
 IPart=  1 NShTot=          16 NBatch=           4 AvBLen=         4.0
 PrsmSu-ThDecC:  IPartSL=    1    0 NPrtUSL=    4    1 IThBeg=    0 IThEnd=    3 CPU=   -1 GPU=   -1 NThAct=    4.
 IPart=  3 NShTot=          12 NBatch=           3 AvBLen=         4.0
 PrsmSu-ThDecC:  IPartSL=    3    0 NPrtUSL=    4    1 IThBeg=    0 IThEnd=    3 CPU=   -1 GPU=   -1 NThAct=    3.
 IPart=  2 NShTot=          12 NBatch=           3 AvBLen=         4.0
 PrsmSu-ThDecC:  IPartSL=    2    0 NPrtUSL=    4    1 IThBeg=    0 IThEnd=    3 CPU=   -1 GPU=   -1 NThAct=    2.
 IPart=  0 NShTot=          20 NBatch=           5 AvBLen=         4.0
 PrsmSu-ThDecC:  IPartSL=    0    0 NPrtUSL=    4    1 IThBeg=    0 IThEnd=    3 CPU=   -1 GPU=   -1 NThAct=    1.
 PrSmSu:  NxtVal=              5.
 FFX after D2V 
                1             2             3             4             5 
      1  0.000000D+00
      2  0.000000D+00  0.000000D+00
      3  0.000000D+00  0.000000D+00  0.000000D+00
      4  0.000000D+00  0.000000D+00  0.000000D+00  0.153065D+01
      5  0.000000D+00  0.000000D+00  0.000000D+00 -0.555539D+00  0.547415D+01
      6  0.000000D+00  0.000000D+00  0.000000D+00 -0.112680D+01 -0.299948D+00
      7  0.000000D+00  0.000000D+00  0.000000D+00 -0.222760D+01 -0.161849D-01
      8  0.000000D+00  0.000000D+00  0.000000D+00 -0.137061D-01 -0.211842D+01
      9  0.000000D+00  0.000000D+00  0.000000D+00  0.160583D+00  0.810969D-01
     10  0.000000D+00  0.000000D+00  0.000000D+00  0.147541D+00  0.110768D+00
     11  0.000000D+00  0.000000D+00  0.000000D+00  0.945266D-01 -0.194424D+01
     12  0.000000D+00  0.000000D+00  0.000000D+00 -0.247825D+00 -0.415567D-01
     13  0.000000D+00  0.000000D+00  0.000000D+00  0.549408D+00  0.460956D+00
     14  0.000000D+00  0.000000D+00  0.000000D+00  0.474719D+00 -0.141149D+01
     15  0.000000D+00  0.000000D+00  0.000000D+00  0.121404D+01  0.260408D+00
                6             7             8             9            10 
      6  0.376968D+01
      7  0.225658D+00  0.224434D+01
      8  0.602920D-01  0.230653D-01  0.199515D+01
      9 -0.912968D+00 -0.304959D+00 -0.512282D-01  0.107849D+01
     10 -0.325886D+00 -0.226125D-01 -0.247012D-02  0.241646D+00 -0.531408D-01
     11 -0.338664D-01  0.137511D-02  0.916346D-01 -0.265919D-02 -0.898121D-01
     12 -0.201075D+01  0.123803D+00  0.192509D-02 -0.969758D-01  0.120180D+00
     13  0.122702D+01  0.587183D-02 -0.688906D-02 -0.972697D-01 -0.717881D-01
     14  0.273523D+00 -0.825551D-02  0.316412D-01 -0.272095D-01 -0.184861D-01
     15 -0.845967D+00 -0.445030D-01 -0.109889D-01 -0.685483D-01 -0.359394D-01
               11            12            13            14            15 
     11  0.183389D+01
     12  0.374622D-01  0.208062D+01
     13 -0.608963D-02  0.384218D-02 -0.483492D+00
     14  0.187139D-01  0.216941D-02 -0.447977D+00  0.136113D+01
     15 -0.936593D-03  0.271069D-01 -0.113360D+01 -0.248483D+00  0.887408D+00
 Second derivatives from L701 IAtSt=0:
                1             2             3             4             5 
      1  0.000000D+00
      2  0.000000D+00  0.000000D+00
      3  0.000000D+00  0.000000D+00  0.000000D+00
      4  0.000000D+00  0.000000D+00  0.000000D+00  0.153065D+01
      5  0.000000D+00  0.000000D+00  0.000000D+00 -0.555539D+00  0.547415D+01
      6  0.000000D+00  0.000000D+00  0.000000D+00 -0.112680D+01 -0.299948D+00
      7  0.000000D+00  0.000000D+00  0.000000D+00 -0.222760D+01 -0.161849D-01
      8  0.000000D+00  0.000000D+00  0.000000D+00 -0.137061D-01 -0.211842D+01
      9  0.000000D+00  0.000000D+00  0.000000D+00  0.160583D+00  0.810969D-01
     10  0.000000D+00  0.000000D+00  0.000000D+00  0.147541D+00  0.110768D+00
     11  0.000000D+00  0.000000D+00  0.000000D+00  0.945266D-01 -0.194424D+01
     12  0.000000D+00  0.000000D+00  0.000000D+00 -0.247825D+00 -0.415567D-01
     13  0.000000D+00  0.000000D+00  0.000000D+00  0.549408D+00  0.460956D+00
     14  0.000000D+00  0.000000D+00  0.000000D+00  0.474719D+00 -0.141149D+01
     15  0.000000D+00  0.000000D+00  0.000000D+00  0.121404D+01  0.260408D+00
                6             7             8             9            10 
      6  0.376968D+01
      7  0.225658D+00  0.224434D+01
      8  0.602920D-01  0.230653D-01  0.199515D+01
      9 -0.912968D+00 -0.304959D+00 -0.512282D-01  0.107849D+01
     10 -0.325886D+00 -0.226125D-01 -0.247012D-02  0.241646D+00 -0.531408D-01
     11 -0.338664D-01  0.137511D-02  0.916346D-01 -0.265919D-02 -0.898121D-01
     12 -0.201075D+01  0.123803D+00  0.192509D-02 -0.969758D-01  0.120180D+00
     13  0.122702D+01  0.587183D-02 -0.688906D-02 -0.972697D-01 -0.717881D-01
     14  0.273523D+00 -0.825551D-02  0.316412D-01 -0.272095D-01 -0.184861D-01
     15 -0.845967D+00 -0.445030D-01 -0.109889D-01 -0.685483D-01 -0.359394D-01
               11            12            13            14            15 
     11  0.183389D+01
     12  0.374622D-01  0.208062D+01
     13 -0.608963D-02  0.384218D-02 -0.483492D+00
     14  0.187139D-01  0.216941D-02 -0.447977D+00  0.136113D+01
     15 -0.936593D-03  0.271069D-01 -0.113360D+01 -0.248483D+00  0.887408D+00
 Polarizability into L701:
                1             2             3 
      1  0.822660D+01
      2  0.104277D+01  0.715586D+00
      3  0.181717D+01  0.584010D+00  0.493232D+01
 Polarizability after L701:
                1             2             3 
      1  0.822660D+01
      2  0.104277D+01  0.715586D+00
      3  0.181717D+01  0.584010D+00  0.493232D+01
 Dipole Derivatives into L701:
                 1             2             3             4             5 
      1  -0.150271D+00  0.146292D+00  0.195290D-02  0.143402D-01 -0.627213D-01
      2   0.111711D+00 -0.111774D+01  0.886813D-01 -0.569953D-01  0.375913D+00
      3   0.294819D-02  0.118177D+00 -0.186594D+00 -0.409074D-01  0.170004D-01
                 6             7             8             9            10 
      1   0.250797D-01  0.255612D-01 -0.416049D-02 -0.523939D-01  0.110370D+00
      2  -0.804658D-02 -0.218143D-01  0.379488D+00 -0.540433D-01 -0.329016D-01
      3   0.881982D-03  0.413307D-01 -0.681302D-01  0.698230D-01 -0.337155D-02
                11            12 
      1  -0.794104D-01  0.253613D-01
      2   0.362335D+00 -0.265914D-01
      3  -0.670471D-01  0.115889D+00
 Dipole Derivatives after L701:
                 1             2             3             4             5 
      1  -0.150271D+00  0.146292D+00  0.195290D-02  0.143402D-01 -0.627213D-01
      2   0.111711D+00 -0.111774D+01  0.886813D-01 -0.569953D-01  0.375913D+00
      3   0.294819D-02  0.118177D+00 -0.186594D+00 -0.409074D-01  0.170004D-01
                 6             7             8             9            10 
      1   0.250797D-01  0.255612D-01 -0.416049D-02 -0.523939D-01  0.110370D+00
      2  -0.804658D-02 -0.218143D-01  0.379488D+00 -0.540433D-01 -0.329016D-01
      3   0.881982D-03  0.413307D-01 -0.681302D-01  0.698230D-01 -0.337155D-02
                11            12 
      1  -0.794104D-01  0.253613D-01
      2   0.362335D+00 -0.265914D-01
      3  -0.670471D-01  0.115889D+00
 Hessian into L701:
                1             2             3             4             5 
      1  0.639992D+00
      2  0.842482D-01 -0.782699D-01
      3  0.390947D-01  0.630523D-01  0.592070D+00
      4 -0.680815D-01 -0.721822D-02 -0.469745D-01  0.636901D-01
      5 -0.104585D-01 -0.142700D-01  0.625238D-02 -0.127269D-02  0.624891D-01
      6  0.445818D-01 -0.427912D-01 -0.412506D+00  0.251286D-02  0.105109D-01
      7 -0.350318D+00 -0.421082D-01  0.138876D+00 -0.978771D-02  0.476085D-02
      8 -0.612675D-02  0.309530D-01 -0.170277D-01 -0.127577D-02 -0.233062D-01
      9  0.147826D-01 -0.749789D-03 -0.739015D-01  0.739488D-01 -0.439648D-02
     10 -0.221593D+00 -0.349217D-01 -0.130996D+00  0.141791D-01  0.697030D-02
     11 -0.676629D-01  0.615869D-01 -0.522770D-01  0.976668D-02 -0.249129D-01
     12 -0.984590D-01 -0.195113D-01 -0.105663D+00 -0.294872D-01 -0.123668D-01
                6             7             8             9            10 
      6  0.370427D+00
      7 -0.123586D+00  0.296182D+00
      8  0.633220D-02  0.110891D-01  0.211196D-01
      9  0.687898D-02 -0.645646D-01 -0.101359D-02  0.604217D-01
     10  0.764917D-01  0.639231D-01 -0.368654D-02 -0.241668D-01  0.143491D+00
     11  0.259481D-01  0.262583D-01 -0.287665D-01  0.615985D-02  0.316380D-01
     12  0.351999D-01  0.492748D-01  0.117091D-01  0.660080D-02  0.786714D-01
               11            12 
     11 -0.790755D-02
     12  0.201690D-01  0.638621D-01
 Hessian after L701:
                1             2             3             4             5 
      1  0.217064D+01
      2 -0.471291D+00  0.539588D+01
      3 -0.108770D+01 -0.236896D+00  0.436175D+01
      4 -0.229568D+01 -0.234032D-01  0.178684D+00  0.230803D+01
      5 -0.241646D-01 -0.213269D+01  0.665444D-01  0.217926D-01  0.205763D+01
      6  0.205164D+00  0.383057D-01 -0.132547D+01 -0.302446D+00 -0.407174D-01
      7 -0.202776D+00  0.686601D-01 -0.187010D+00 -0.324002D-01  0.229072D-02
      8  0.883999D-01 -0.191329D+01 -0.508941D-01  0.993386D-04  0.683284D-01
      9 -0.233042D+00 -0.423065D-01 -0.208465D+01  0.197752D+00 -0.247138D-02
     10  0.327815D+00  0.426034D+00  0.109603D+01  0.200509D-01  0.812388D-04
     11  0.407056D+00 -0.134990D+01  0.221246D+00  0.151117D-02  0.672835D-02
     12  0.111558D+01  0.240897D+00 -0.951629D+00 -0.739902D-01 -0.233557D-01
                6             7             8             9            10 
      6  0.144892D+01
      7  0.118059D+00  0.243041D+00
      8  0.367301D-02 -0.787230D-01  0.185501D+01
      9 -0.900969D-01  0.556151D-01  0.364486D-01  0.214104D+01
     10 -0.207780D-01 -0.786500D-02 -0.977617D-02 -0.203246D-01 -0.340001D+00
     11 -0.126138D-02  0.777221D-02 -0.100526D-01  0.832926D-02 -0.416339D+00
     12 -0.333484D-01  0.133354D-01  0.107725D-01  0.337077D-01 -0.105493D+01
               11            12 
     11  0.135322D+01
     12 -0.228314D+00  0.951270D+00
 Leave Link  701 at Sun Jun 27 11:53:07 2021, MaxMem=   104857600 cpu:               0.5 elap:               0.3
 Leave Link  702 at Sun Jun 27 11:53:08 2021, MaxMem=   104857600 cpu:               0.1 elap:               0.0
 ICntrl=    100127.
 Calling FoFJK, ICntrl=    100127 FMM=F ISym2X=0 I1Cent= 0 IOpClX= 0 NMat=1 NMatS=1 NMatT=0.
 FoFJK:  IHMeth= 1 ICntrl=  100127 DoSepK=F KAlg= 0 I1Cent=           0 FoldK=F
 IRaf=         0 NMat=       1 IRICut=       1 DoRegI=T DoRafI=F ISym2E= 0 IDoP0=0 IntGTp=1.
 FoFCou: FMM=F IPFlag=           0 FMFlag=      100000 FMFlg1=         800
         NFxFlg=           0 DoJE=F BraDBF=F KetDBF=F FulRan=T
         wScrn=  0.000000 ICntrl=    100127 IOpCl=  0 I1Cent=           0 NGrid=           0
         NMat0=    1 NMatS0=      1 NMatT0=    0 NMatD0=    1 NMtDS0=    0 NMtDT0=    0
 Symmetry not used in FoFCou.
 FoFCou:  KetSym=F NOpSet=  1 NOpAb=1 NOp=  1.
 FoFCou:  CnvScl= 1.00D+00 Thresh= 1.00D-12 IAcrcy=      10.
 ShPair: Thresh= 1.00D-12 NBox=     0 BxSize= 0.00D+00 RnKept= 3.96D+00
         NSMCal=                   15 NSMKep=                  15
 PrismS was handed   104853874 working-precision words and    15 shell-pairs
 FoFCou: LinMIO=F DoNuc=F BraDBF=F KetDBF=F HaveP=T PDBF=F HaveZ=T HaveW=F
         NIJTC =       3 NIJTAt=       0 NIJTCD=       0 NIJTT =       3
         IJTBeg=       1 IJTEnd=       3 KLTBeg=       1 KLTEnd=       3
         IPTBeg=       1 IPTEnd=       3 IPTBCv=       1 IPTECv=       3
         IZTBeg=       1 IZTEnd=       3 IZTBCv=       1 IZTECv=       3
         IWTBeg=       4 IWTEnd=       3 IWTBCv=       4 IWTECv=       3
         INTBeg=       1 INTEnd=       0 IFTBCv=       1 IFTECv=       3
 NCel replicated for PrismC:     1
 CoulSu-InSpLW:  IPartL=    0 NPrtUS=    4 NPrtUL=    1 DoSpLW=F IThBeg=    0 IThEnd=    3 NThAct=    4.
 CoulSu:  IncTry=  1024 NBBP=            120 NTPThr=   100 NPartT=    4 Incr=           1 LDynOK=F GPUOK=F.
 CoulSu:  NPrtUS=   4 ThrOK=T IAlg=2 LenDen=           0 LWGrdD=           0 DoCopy=F ISkipM=0
          DoSpLW=F IThBeg=    0 IThEnd=    3.
 CoulSu:  IPart=    0 IPartR=    0 CPU=   -1 GPU=   -1.
 CoulSu:  IPart=    2 IPartR=    2 CPU=   -1 GPU=   -1.
 Enter PrismC:  IPart=  0 JobTyp=22 DoJE=F Cont=F.
 CoulSu:  IPart=    1 IPartR=    1 CPU=   -1 GPU=   -1.
 CoulSu:  IPart=    3 IPartR=    3 CPU=   -1 GPU=   -1.
 PrismC:  IPart=     0 DynPar=F LinDyn=F Incr=           1 UseFst=F UseS4=T ISplat=2.
 PrismC was handed    26212086 working-precision words and    15 shell-pairs
 Enter PrismC:  IPart=  2 JobTyp=22 DoJE=F Cont=F.
 Enter PrismC:  IPart=  3 JobTyp=22 DoJE=F Cont=F.
 PrismC:  IPart=     2 DynPar=F LinDyn=F Incr=           1 UseFst=F UseS4=T ISplat=2.
 Enter PrismC:  IPart=  1 JobTyp=22 DoJE=F Cont=F.
 PrismC was handed    26212086 working-precision words and    15 shell-pairs
 PrismC:  IPart=     3 DynPar=F LinDyn=F Incr=           1 UseFst=F UseS4=T ISplat=2.
 PrismC was handed    26212086 working-precision words and    15 shell-pairs
 PrismC:  IPart=     1 DynPar=F LinDyn=F Incr=           1 UseFst=F UseS4=T ISplat=2.
 PrismC was handed    26212086 working-precision words and    15 shell-pairs
 IPart=  0 NShTot=          34 NShNF=          34 NShFF=           0 MinMC=      10
           NShCPU=          34 NBCPU=           6 AvBCPU=         5.7
           NShGPU=           0 NBGPU=           0 AvBGPU=         0.0
 CoulSu-ThDecC:  IPartSL=    0    0 NPrtUSL=    4    1 IThBeg=    0 IThEnd=    3 CPU=   -1 GPU=   -1 NThAct=    4.
 IPart=  1 NShTot=          29 NShNF=          29 NShFF=           0 MinMC=      10
           NShCPU=          29 NBCPU=           5 AvBCPU=         5.8
           NShGPU=           0 NBGPU=           0 AvBGPU=         0.0
 CoulSu-ThDecC:  IPartSL=    1    0 NPrtUSL=    4    1 IThBeg=    0 IThEnd=    3 CPU=   -1 GPU=   -1 NThAct=    3.
 IPart=  3 NShTot=          27 NShNF=          27 NShFF=           0 MinMC=      10
           NShCPU=          27 NBCPU=           5 AvBCPU=         5.4
           NShGPU=           0 NBGPU=           0 AvBGPU=         0.0
 CoulSu-ThDecC:  IPartSL=    3    0 NPrtUSL=    4    1 IThBeg=    0 IThEnd=    3 CPU=   -1 GPU=   -1 NThAct=    2.
 IPart=  2 NShTot=          30 NShNF=          30 NShFF=           0 MinMC=      10
           NShCPU=          30 NBCPU=           5 AvBCPU=         6.0
           NShGPU=           0 NBGPU=           0 AvBGPU=         0.0
 CoulSu-ThDecC:  IPartSL=    2    0 NPrtUSL=    4    1 IThBeg=    0 IThEnd=    3 CPU=   -1 GPU=   -1 NThAct=    1.
 CoulSu:  NxtVal=              5 LenVP=       26212087 MinMC=      10.
 Force constants from FoFCou: 
                1             2             3             4             5 
      1  0.000000D+00
      2  0.000000D+00  0.000000D+00
      3  0.000000D+00  0.000000D+00  0.000000D+00
      4  0.000000D+00  0.000000D+00  0.000000D+00 -0.148174D+01
      5  0.000000D+00  0.000000D+00  0.000000D+00  0.520740D+00 -0.547807D+01
      6  0.000000D+00  0.000000D+00  0.000000D+00  0.978772D+00  0.280517D+00
      7  0.000000D+00  0.000000D+00  0.000000D+00  0.224213D+01  0.579538D-02
      8  0.000000D+00  0.000000D+00  0.000000D+00  0.364132D-02  0.221386D+01
      9  0.000000D+00  0.000000D+00  0.000000D+00 -0.181135D+00 -0.580987D-01
     10  0.000000D+00  0.000000D+00  0.000000D+00 -0.291386D+00 -0.871608D-01
     11  0.000000D+00  0.000000D+00  0.000000D+00 -0.855343D-01  0.193472D+01
     12  0.000000D+00  0.000000D+00  0.000000D+00  0.319060D+00  0.286529D-01
                6             7             8             9            10 
      6 -0.316637D+01
      7 -0.189221D+00 -0.226255D+01
      8 -0.555499D-01 -0.924566D-02 -0.212519D+01
      9  0.410760D+00  0.279333D+00  0.442850D-01 -0.527510D+00
     10  0.320743D+00  0.321380D-01  0.219575D-02 -0.130745D+00  0.247030D+00
     11  0.251217D-01 -0.682767D-03 -0.676998D-01  0.295955D-02  0.820721D-01
     12  0.194392D+01 -0.134115D+00 -0.811580D-03  0.820115D-01 -0.189189D+00
               11            12 
     11 -0.185552D+01
     12 -0.256688D-01 -0.200429D+01
 Hessian from J: 
                1             2             3             4             5 
      1  0.000000D+00
      2  0.000000D+00  0.000000D+00
      3  0.000000D+00  0.000000D+00  0.000000D+00
      4  0.000000D+00  0.000000D+00  0.000000D+00 -0.148174D+01
      5  0.000000D+00  0.000000D+00  0.000000D+00  0.520740D+00 -0.547807D+01
      6  0.000000D+00  0.000000D+00  0.000000D+00  0.978772D+00  0.280517D+00
      7  0.000000D+00  0.000000D+00  0.000000D+00  0.224213D+01  0.579538D-02
      8  0.000000D+00  0.000000D+00  0.000000D+00  0.364132D-02  0.221386D+01
      9  0.000000D+00  0.000000D+00  0.000000D+00 -0.181135D+00 -0.580987D-01
     10  0.000000D+00  0.000000D+00  0.000000D+00 -0.291386D+00 -0.871608D-01
     11  0.000000D+00  0.000000D+00  0.000000D+00 -0.855343D-01  0.193472D+01
     12  0.000000D+00  0.000000D+00  0.000000D+00  0.319060D+00  0.286529D-01
     13  0.000000D+00  0.000000D+00  0.000000D+00 -0.469007D+00 -0.439375D+00
     14  0.000000D+00  0.000000D+00  0.000000D+00 -0.438847D+00  0.132950D+01
     15  0.000000D+00  0.000000D+00  0.000000D+00 -0.111670D+01 -0.251071D+00
                6             7             8             9            10 
      6 -0.316637D+01
      7 -0.189221D+00 -0.226255D+01
      8 -0.555499D-01 -0.924566D-02 -0.212519D+01
      9  0.410760D+00  0.279333D+00  0.442850D-01 -0.527510D+00
     10  0.320743D+00  0.321380D-01  0.219575D-02 -0.130745D+00  0.247030D+00
     11  0.251217D-01 -0.682767D-03 -0.676998D-01  0.295955D-02  0.820721D-01
     12  0.194392D+01 -0.134115D+00 -0.811580D-03  0.820115D-01 -0.189189D+00
     13 -0.111029D+01 -0.117233D-01  0.340859D-02  0.325473D-01  0.122181D-01
     14 -0.250089D+00  0.413305D-02 -0.209690D-01  0.108541D-01  0.289293D-02
     15  0.811695D+00  0.440022D-01  0.120765D-01  0.347390D-01 -0.808762D-03
               11            12            13            14            15 
     11 -0.185552D+01
     12 -0.256688D-01 -0.200429D+01
     13  0.414494D-02  0.424380D-02  0.468512D+00
     14 -0.114969D-01 -0.217257D-02  0.431821D+00 -0.129703D+01
     15 -0.241254D-02 -0.216366D-01  0.107350D+01  0.241407D+00 -0.824798D+00
 Force constants from FoF: 
                1             2             3             4             5 
      1  0.000000D+00
      2  0.000000D+00  0.000000D+00
      3  0.000000D+00  0.000000D+00  0.000000D+00
      4  0.000000D+00  0.000000D+00  0.000000D+00 -0.148174D+01
      5  0.000000D+00  0.000000D+00  0.000000D+00  0.520740D+00 -0.547807D+01
      6  0.000000D+00  0.000000D+00  0.000000D+00  0.978772D+00  0.280517D+00
      7  0.000000D+00  0.000000D+00  0.000000D+00  0.224213D+01  0.579538D-02
      8  0.000000D+00  0.000000D+00  0.000000D+00  0.364132D-02  0.221386D+01
      9  0.000000D+00  0.000000D+00  0.000000D+00 -0.181135D+00 -0.580987D-01
     10  0.000000D+00  0.000000D+00  0.000000D+00 -0.291386D+00 -0.871608D-01
     11  0.000000D+00  0.000000D+00  0.000000D+00 -0.855343D-01  0.193472D+01
     12  0.000000D+00  0.000000D+00  0.000000D+00  0.319060D+00  0.286529D-01
     13  0.000000D+00  0.000000D+00  0.000000D+00 -0.469007D+00 -0.439375D+00
     14  0.000000D+00  0.000000D+00  0.000000D+00 -0.438847D+00  0.132950D+01
     15  0.000000D+00  0.000000D+00  0.000000D+00 -0.111670D+01 -0.251071D+00
                6             7             8             9            10 
      6 -0.316637D+01
      7 -0.189221D+00 -0.226255D+01
      8 -0.555499D-01 -0.924566D-02 -0.212519D+01
      9  0.410760D+00  0.279333D+00  0.442850D-01 -0.527510D+00
     10  0.320743D+00  0.321380D-01  0.219575D-02 -0.130745D+00  0.247030D+00
     11  0.251217D-01 -0.682767D-03 -0.676998D-01  0.295955D-02  0.820721D-01
     12  0.194392D+01 -0.134115D+00 -0.811580D-03  0.820115D-01 -0.189189D+00
     13 -0.111029D+01 -0.117233D-01  0.340859D-02  0.325473D-01  0.122181D-01
     14 -0.250089D+00  0.413305D-02 -0.209690D-01  0.108541D-01  0.289293D-02
     15  0.811695D+00  0.440022D-01  0.120765D-01  0.347390D-01 -0.808762D-03
               11            12            13            14            15 
     11 -0.185552D+01
     12 -0.256688D-01 -0.200429D+01
     13  0.414494D-02  0.424380D-02  0.468512D+00
     14 -0.114969D-01 -0.217257D-02  0.431821D+00 -0.129703D+01
     15 -0.241254D-02 -0.216366D-01  0.107350D+01  0.241407D+00 -0.824798D+00
 Second derivatives from L703 IAtSt=0:
                1             2             3             4             5 
      1  0.000000D+00
      2  0.000000D+00  0.000000D+00
      3  0.000000D+00  0.000000D+00  0.000000D+00
      4  0.000000D+00  0.000000D+00  0.000000D+00 -0.148174D+01
      5  0.000000D+00  0.000000D+00  0.000000D+00  0.520740D+00 -0.547807D+01
      6  0.000000D+00  0.000000D+00  0.000000D+00  0.978772D+00  0.280517D+00
      7  0.000000D+00  0.000000D+00  0.000000D+00  0.224213D+01  0.579538D-02
      8  0.000000D+00  0.000000D+00  0.000000D+00  0.364132D-02  0.221386D+01
      9  0.000000D+00  0.000000D+00  0.000000D+00 -0.181135D+00 -0.580987D-01
     10  0.000000D+00  0.000000D+00  0.000000D+00 -0.291386D+00 -0.871608D-01
     11  0.000000D+00  0.000000D+00  0.000000D+00 -0.855343D-01  0.193472D+01
     12  0.000000D+00  0.000000D+00  0.000000D+00  0.319060D+00  0.286529D-01
     13  0.000000D+00  0.000000D+00  0.000000D+00 -0.469007D+00 -0.439375D+00
     14  0.000000D+00  0.000000D+00  0.000000D+00 -0.438847D+00  0.132950D+01
     15  0.000000D+00  0.000000D+00  0.000000D+00 -0.111670D+01 -0.251071D+00
                6             7             8             9            10 
      6 -0.316637D+01
      7 -0.189221D+00 -0.226255D+01
      8 -0.555499D-01 -0.924566D-02 -0.212519D+01
      9  0.410760D+00  0.279333D+00  0.442850D-01 -0.527510D+00
     10  0.320743D+00  0.321380D-01  0.219575D-02 -0.130745D+00  0.247030D+00
     11  0.251217D-01 -0.682767D-03 -0.676998D-01  0.295955D-02  0.820721D-01
     12  0.194392D+01 -0.134115D+00 -0.811580D-03  0.820115D-01 -0.189189D+00
     13 -0.111029D+01 -0.117233D-01  0.340859D-02  0.325473D-01  0.122181D-01
     14 -0.250089D+00  0.413305D-02 -0.209690D-01  0.108541D-01  0.289293D-02
     15  0.811695D+00  0.440022D-01  0.120765D-01  0.347390D-01 -0.808762D-03
               11            12            13            14            15 
     11 -0.185552D+01
     12 -0.256688D-01 -0.200429D+01
     13  0.414494D-02  0.424380D-02  0.468512D+00
     14 -0.114969D-01 -0.217257D-02  0.431821D+00 -0.129703D+01
     15 -0.241254D-02 -0.216366D-01  0.107350D+01  0.241407D+00 -0.824798D+00
 Polarizability into L703:
                1             2             3 
      1  0.822660D+01
      2  0.104277D+01  0.715586D+00
      3  0.181717D+01  0.584010D+00  0.493232D+01
 Polarizability after L703:
                1             2             3 
      1  0.822660D+01
      2  0.104277D+01  0.715586D+00
      3  0.181717D+01  0.584010D+00  0.493232D+01
 Dipole Derivatives into L703:
                 1             2             3             4             5 
      1  -0.150271D+00  0.146292D+00  0.195290D-02  0.143402D-01 -0.627213D-01
      2   0.111711D+00 -0.111774D+01  0.886813D-01 -0.569953D-01  0.375913D+00
      3   0.294819D-02  0.118177D+00 -0.186594D+00 -0.409074D-01  0.170004D-01
                 6             7             8             9            10 
      1   0.250797D-01  0.255612D-01 -0.416049D-02 -0.523939D-01  0.110370D+00
      2  -0.804658D-02 -0.218143D-01  0.379488D+00 -0.540433D-01 -0.329016D-01
      3   0.881982D-03  0.413307D-01 -0.681302D-01  0.698230D-01 -0.337155D-02
                11            12 
      1  -0.794104D-01  0.253613D-01
      2   0.362335D+00 -0.265914D-01
      3  -0.670471D-01  0.115889D+00
 Dipole Derivatives after L703:
                 1             2             3             4             5 
      1  -0.150271D+00  0.146292D+00  0.195290D-02  0.143402D-01 -0.627213D-01
      2   0.111711D+00 -0.111774D+01  0.886813D-01 -0.569953D-01  0.375913D+00
      3   0.294819D-02  0.118177D+00 -0.186594D+00 -0.409074D-01  0.170004D-01
                 6             7             8             9            10 
      1   0.250797D-01  0.255612D-01 -0.416049D-02 -0.523939D-01  0.110370D+00
      2  -0.804658D-02 -0.218143D-01  0.379488D+00 -0.540433D-01 -0.329016D-01
      3   0.881982D-03  0.413307D-01 -0.681302D-01  0.698230D-01 -0.337155D-02
                11            12 
      1  -0.794104D-01  0.253613D-01
      2   0.362335D+00 -0.265914D-01
      3  -0.670471D-01  0.115889D+00
 Hessian into L703:
                1             2             3             4             5 
      1  0.217064D+01
      2 -0.471291D+00  0.539588D+01
      3 -0.108770D+01 -0.236896D+00  0.436175D+01
      4 -0.229568D+01 -0.234032D-01  0.178684D+00  0.230803D+01
      5 -0.241646D-01 -0.213269D+01  0.665444D-01  0.217926D-01  0.205763D+01
      6  0.205164D+00  0.383057D-01 -0.132547D+01 -0.302446D+00 -0.407174D-01
      7 -0.202776D+00  0.686601D-01 -0.187010D+00 -0.324002D-01  0.229072D-02
      8  0.883999D-01 -0.191329D+01 -0.508941D-01  0.993386D-04  0.683284D-01
      9 -0.233042D+00 -0.423065D-01 -0.208465D+01  0.197752D+00 -0.247138D-02
     10  0.327815D+00  0.426034D+00  0.109603D+01  0.200509D-01  0.812388D-04
     11  0.407056D+00 -0.134990D+01  0.221246D+00  0.151117D-02  0.672835D-02
     12  0.111558D+01  0.240897D+00 -0.951629D+00 -0.739902D-01 -0.233557D-01
                6             7             8             9            10 
      6  0.144892D+01
      7  0.118059D+00  0.243041D+00
      8  0.367301D-02 -0.787230D-01  0.185501D+01
      9 -0.900969D-01  0.556151D-01  0.364486D-01  0.214104D+01
     10 -0.207780D-01 -0.786500D-02 -0.977617D-02 -0.203246D-01 -0.340001D+00
     11 -0.126138D-02  0.777221D-02 -0.100526D-01  0.832926D-02 -0.416339D+00
     12 -0.333484D-01  0.133354D-01  0.107725D-01  0.337077D-01 -0.105493D+01
               11            12 
     11  0.135322D+01
     12 -0.228314D+00  0.951270D+00
 Hessian after L703:
                1             2             3             4             5 
      1  0.688903D+00
      2  0.494491D-01 -0.821903D-01
      3 -0.108930D+00  0.436212D-01  0.119538D+01
      4 -0.535497D-01 -0.176078D-01 -0.105368D-01  0.454843D-01
      5 -0.205233D-01  0.811640D-01  0.109945D-01  0.125470D-01 -0.675519D-01
      6  0.240288D-01 -0.197929D-01 -0.914714D+00 -0.231123D-01  0.356764D-02
      7 -0.494162D+00 -0.185007D-01  0.133733D+00 -0.262191D-03  0.448647D-02
      8  0.286555D-02  0.214268D-01 -0.257723D-01 -0.583428D-03  0.628629D-03
      9  0.860174D-01 -0.136536D-01 -0.140733D+00  0.636370D-01 -0.328296D-02
     10 -0.141191D+00 -0.133406D-01 -0.142657D-01  0.832764D-02  0.348983D-02
     11 -0.317913D-01 -0.204005D-01 -0.288434D-01  0.564422D-02 -0.142407D-01
     12 -0.111595D-02 -0.101747D-01 -0.139934D+00 -0.299880D-01 -0.112791D-01
                6             7             8             9            10 
      6  0.921408D+00
      7 -0.126858D-01  0.490071D+00
      8  0.663256D-02  0.334910D-02 -0.505908D-03
      9 -0.808538D-02 -0.133574D+00  0.107799D-01  0.136747D+00
     10  0.117693D-01  0.435306D-02 -0.563122D-02 -0.160808D-01  0.128511D+00
     11  0.959274D-02  0.106651D-01 -0.215495D-01  0.615669D-02  0.154820D-01
     12  0.139060D-02  0.125266D-01  0.835992D-02  0.120710D-01  0.185773D-01
               11            12 
     11  0.561906D-01
     12  0.130939D-01  0.126473D+00
 Leave Link  703 at Sun Jun 27 11:53:08 2021, MaxMem=   104857600 cpu:               0.7 elap:               0.2
 GetPCM: File not found, return IValue=0.
 FrcOut:
 IF    =        33 IFX   =        45 IFXYZ =        57
 IFFX  =        69 IFFFX =       147 IFLen =        12
 IFFLen=        78 IFFFLn=         0 IEDerv=       147
 LEDerv=       629 IFroze=       946 ICStrt=      1143
 Hessian entering l716: 
                1             2             3             4             5 
      1  0.688903D+00
      2  0.494491D-01 -0.821903D-01
      3 -0.108930D+00  0.436212D-01  0.119538D+01
      4 -0.535497D-01 -0.176078D-01 -0.105368D-01  0.454843D-01
      5 -0.205233D-01  0.811640D-01  0.109945D-01  0.125470D-01 -0.675519D-01
      6  0.240288D-01 -0.197929D-01 -0.914714D+00 -0.231123D-01  0.356764D-02
      7 -0.494162D+00 -0.185007D-01  0.133733D+00 -0.262191D-03  0.448647D-02
      8  0.286555D-02  0.214268D-01 -0.257723D-01 -0.583428D-03  0.628629D-03
      9  0.860174D-01 -0.136536D-01 -0.140733D+00  0.636370D-01 -0.328296D-02
     10 -0.141191D+00 -0.133406D-01 -0.142657D-01  0.832764D-02  0.348983D-02
     11 -0.317913D-01 -0.204005D-01 -0.288434D-01  0.564422D-02 -0.142407D-01
     12 -0.111595D-02 -0.101747D-01 -0.139934D+00 -0.299880D-01 -0.112791D-01
                6             7             8             9            10 
      6  0.921408D+00
      7 -0.126858D-01  0.490071D+00
      8  0.663256D-02  0.334910D-02 -0.505908D-03
      9 -0.808538D-02 -0.133574D+00  0.107799D-01  0.136747D+00
     10  0.117693D-01  0.435306D-02 -0.563122D-02 -0.160808D-01  0.128511D+00
     11  0.959274D-02  0.106651D-01 -0.215495D-01  0.615669D-02  0.154820D-01
     12  0.139060D-02  0.125266D-01  0.835992D-02  0.120710D-01  0.185773D-01
               11            12 
     11  0.561906D-01
     12  0.130939D-01  0.126473D+00
 Dipole        =-5.34746633D-03-2.05677251D-01 2.87948826D-02
 DipoleDeriv   =-1.50271450D-01 1.11711236D-01 2.94819449D-03
                 1.46292237D-01-1.11773526D+00 1.18176828D-01
                 1.95290199D-03 8.86813484D-02-1.86593954D-01
                 1.43402339D-02-5.69953187D-02-4.09073813D-02
                -6.27213415D-02 3.75912628D-01 1.70004064D-02
                 2.50796912D-02-8.04657511D-03 8.81982197D-04
                 2.55612039D-02-2.18143432D-02 4.13307344D-02
                -4.16049264D-03 3.79487566D-01-6.81301792D-02
                -5.23938667D-02-5.40433317D-02 6.98230354D-02
                 1.10370012D-01-3.29015744D-02-3.37154764D-03
                -7.94104024D-02 3.62335068D-01-6.70470556D-02
                 2.53612735D-02-2.65914416D-02 1.15888936D-01
 Polarizability= 8.22659887D+00 1.04276578D+00 7.15585923D-01
                 1.81716541D+00 5.84010356D-01 4.93231685D+00
 HyperPolar    = 6.06325864D-01-1.02448305D+00-8.11898060D-01
                -1.17227342D+00-8.45825822D+00-1.23522768D+00
                -5.64724353D-01-2.92968983D+00 1.35519083D-01
                 5.21960613D+00
 Quadrupole    = 1.01784301D+00-1.28437248D+00 2.66529478D-01
                 3.26642372D-01 4.36133770D-01 2.07953407D-01
 VibFq2-Diag1:  N=     12 IV=           5 MDV=   104855613 NE2=     8737967
 IAlgDg is returning  0.
 Full mass-weighted force constant matrix:
 Low frequencies ----1429.8250 -587.6515 -358.4144   -0.0011   -0.0009    0.0001
 Low frequencies --- 1261.9541 1859.6934 1945.7230
 OrtVCM:  Ph=1 IPass= 1 DotMx1= 0.00D+00
 OrtVCM:  IS=    1 I=    1 IndO=    1 Dot= 1.00D+00 DotN= 1.00D+00 ElMax1= 9.07D-01 ElMax1N= 9.07D-01
 OrtVCM:  Ph=2 NNew=    0 IAdd=    2 IPass= 1 DotMx2= 0.00D+00
 OrtVCM:  IS=    1 I=    2 IndO=    2 Dot= 1.00D+00 DotN= 1.00D+00 ElMax1= 9.07D-01 ElMax1N= 9.07D-01
 OrtVCM:  Ph=2 NNew=    0 IAdd=    3 IPass= 1 DotMx2= 0.00D+00
 OrtVCM:  IS=    1 I=    3 IndO=    3 Dot= 1.00D+00 DotN= 1.00D+00 ElMax1= 9.07D-01 ElMax1N= 9.07D-01
 OrtVCM:  Ph=2 NNew=    0 IAdd=    4 IPass= 1 DotMx2= 5.24D-17
 OrtVCM:  IS=    1 I=    4 IndO=    4 Dot= 1.00D+00 DotN= 1.00D+00 ElMax1= 7.69D-01 ElMax1N= 7.69D-01
 OrtVCM:  Ph=2 NNew=    0 IAdd=    5 IPass= 1 DotMx2= 2.52D-16
 OrtVCM:  IS=    1 I=    5 IndO=    5 Dot= 1.00D+00 DotN= 1.00D+00 ElMax1= 7.90D-01 ElMax1N= 7.90D-01
 OrtVCM:  Ph=2 NNew=    0 IAdd=    6 IPass= 1 DotMx2= 5.20D-16
 OrtVCM:  IS=    1 I=    6 IndO=    6 Dot= 1.00D+00 DotN= 1.00D+00 ElMax1= 5.63D-01 ElMax1N= 5.63D-01
 OrtVCM:  Ph=1 IPass= 1 DotMx1= 9.07D-01
 OrtVCM:  Ph=1 IPass= 2 DotMx1= 3.96D-16
 OrtVCM:  IS=    1 I=    1 IndO=    7 Dot= 1.76D-01 DotN= 1.76D-01 ElMax1= 2.22D-01 ElMax1N= 2.22D-01
 OrtVCM:  Ph=2 NNew=    0 IAdd=    2 IPass= 1 DotMx2= 6.85D-04
 OrtVCM:  Ph=2 NNew=    0 IAdd=    2 IPass= 2 DotMx2= 1.12D-18
 OrtVCM:  IS=    1 I=    2 IndO=    8 Dot= 1.77D-01 DotN= 1.77D-01 ElMax1= 2.27D-01 ElMax1N= 2.27D-01
 OrtVCM:  Ph=2 NNew=    0 IAdd=    3 IPass= 1 DotMx2= 1.32D-03
 OrtVCM:  Ph=2 NNew=    0 IAdd=    3 IPass= 2 DotMx2= 2.87D-18
 OrtVCM:  IS=    1 I=    3 IndO=    9 Dot= 1.75D-01 DotN= 1.75D-01 ElMax1= 2.21D-01 ElMax1N= 2.21D-01
 OrtVCM:  Ph=2 NNew=    0 IAdd=    4 IPass= 1 DotMx2= 5.17D-01
 OrtVCM:  Ph=2 NNew=    0 IAdd=    4 IPass= 2 DotMx2= 6.43D-17
 OrtVCM:  IS=    1 I=    4 IndO=   10 Dot= 4.13D-01 DotN= 4.13D-01 ElMax1= 4.13D-01 ElMax1N= 4.13D-01
 OrtVCM:  Ph=2 NNew=    0 IAdd=    5 IPass= 1 DotMx2= 5.07D-01
 OrtVCM:  Ph=2 NNew=    0 IAdd=    5 IPass= 2 DotMx2= 1.92D-16
 OrtVCM:  IS=    1 I=    5 IndO=    0 Dot= 6.43D-03 DotN= 6.43D-03 ElMax1= 6.51D-02 ElMax1N= 6.51D-02
 OrtVCM:  Ph=2 NNew=    0 IAdd=    6 IPass= 1 DotMx2= 5.30D-01
 OrtVCM:  Ph=2 NNew=    0 IAdd=    6 IPass= 2 DotMx2= 3.77D-17
 OrtVCM:  IS=    1 I=    6 IndO=   11 Dot= 6.60D-01 DotN= 6.60D-01 ElMax1= 6.60D-01 ElMax1N= 6.60D-01
 SchOr2:  IPass= 1 Test2A= 1.00D-01 IOff=     0 NDo=     6 NNew=     5
 OrtVCM:  Ph=1 IPass= 1 DotMx1= 5.31D-01
 OrtVCM:  Ph=1 IPass= 2 DotMx1= 1.67D-16
 OrtVCM:  IS=    1 I=    1 IndO=   12 Dot= 4.75D-01 DotN= 4.75D-01 ElMax1= 4.75D-01 ElMax1N= 4.75D-01
 SchOr2:  IPass= 1 Test2A= 1.00D-01 IOff=     6 NDo=     1 NNew=     1
 VibFq2-Diag2:  N=      6 IV=           5 MDV=   104855613 NE2=    17475934
 IAlgDg is returning  0.

 Eigenvalues of Mass-weighted Force Constants in hartree/(bohr**2*amu):
    -0.96974681D+03     0.16803876D+04     0.19317870D+04     0.20596440D+04
     0.38748221D+04     0.50957777D+04
 ******    1 imaginary frequencies (negative Signs) ****** 
 Dipole derivative wrt mode   1: -3.05336D+00  2.23324D+01 -2.73631D+00
 Vibrational polarizability contributions from mode   1       0.2667918      14.2721075       0.2142634
 Dipole derivative wrt mode   2:  1.55275D+00 -5.64975D-01 -2.96609D+00
 Vibrational polarizability contributions from mode   2       0.0229781       0.0030421       0.0838463
 Dipole derivative wrt mode   3: -2.34249D+00 -4.66942D-01  1.18140D+00
 Vibrational polarizability contributions from mode   3       0.0395702       0.0015723       0.0100649
 Dipole derivative wrt mode   4:  1.78238D+00  3.60116D-01  2.61410D+00
 Vibrational polarizability contributions from mode   4       0.0201536       0.0008227       0.0433506
 Dipole derivative wrt mode   5:  1.66974D+00  8.04426D-02  4.66891D-01
 Vibrational polarizability contributions from mode   5       0.0049972       0.0000116       0.0003907
 Dipole derivative wrt mode   6:  6.81945D-01 -9.47275D-02  4.35853D-01
 Vibrational polarizability contributions from mode   6       0.0004820       0.0000093       0.0001969
 Diagonal vibrational polarizability:
        0.3549729      14.2775655       0.3521128
 NorSel:  MapVib=      1      2      3      4      5      6
 Harmonic frequencies (cm**-1), IR intensities (KM/Mole), Raman scattering
 activities (A**4/AMU), depolarization ratios for plane and unpolarized
 incident light, reduced masses (AMU), force constants (mDyne/A),
 and normal coordinates:
                      1                      2                      3
                      A                      A                      A
 Frequencies --   -969.7468              1680.3876              1931.7870
 Red. masses --      1.2059                 1.0997                 1.0365
 Frc consts  --      0.6681                 1.8295                 2.2790
 IR Inten    --    515.5475                11.5279                 7.1010
  Atom  AN      X      Y      Z        X      Y      Z        X      Y      Z
     1   7     0.01  -0.12   0.01    -0.07  -0.00   0.04    -0.02  -0.01  -0.04
     2   1    -0.06   0.56  -0.01     0.70   0.13   0.06     0.47   0.02  -0.02
     3   1    -0.04   0.59  -0.08    -0.11  -0.10  -0.11     0.26   0.11   0.66
     4   1    -0.06   0.55  -0.07     0.44   0.02  -0.50    -0.51  -0.03  -0.03
                      4                      5                      6
                      A                      A                      A
 Frequencies --   2059.6440              3874.8221              5095.7777
 Red. masses --      1.1060                 1.0727                 1.0781
 Frc consts  --      2.7643                 9.4897                16.4947
 IR Inten    --     10.1401                 3.0125                 0.6640
  Atom  AN      X      Y      Z        X      Y      Z        X      Y      Z
     1   7    -0.06  -0.01  -0.07    -0.07  -0.00   0.02     0.00  -0.00  -0.07
     2   1     0.10  -0.04  -0.08    -0.04   0.01   0.07    -0.02   0.00   1.00
     3   1     0.04   0.04   0.35     0.94   0.00  -0.31    -0.05   0.01   0.01
     4   1     0.63   0.20   0.64     0.05   0.02   0.01     0.01   0.01   0.02

 -------------------
 - Thermochemistry -
 -------------------
 Temperature  2500.000 Kelvin.  Pressure   1.00000 Atm.
 Atom     1 has atomic number  7 and mass  14.00307
 Atom     2 has atomic number  1 and mass   1.00783
 Atom     3 has atomic number  1 and mass   1.00783
 Atom     4 has atomic number  1 and mass   1.00783
 Molecular mass:    17.02655 amu.
 Principal axes and moments of inertia in atomic units:
                           1         2         3
     Eigenvalues --     4.33849   8.41533  12.60467
           X            0.90171  -0.41570  -0.11880
           Y            0.14787   0.03832   0.98826
           Z            0.40627   0.90869  -0.09603
 This molecule is an asymmetric top.
 Rotational symmetry number  1.
 Rotational temperatures (Kelvin)     19.96407    10.29240     6.87157
 Rotational constants (GHZ):         415.98378   214.45873   143.18037
    1 imaginary frequencies ignored.
 Zero-point vibrational energy      87581.1 (Joules/Mol)
                                   20.93239 (Kcal/Mol)
 Warning -- explicit consideration of   5 degrees of freedom as
           vibrations may cause significant error
 Vibrational temperatures:   2417.70  2779.41  2963.37  5575.00  7331.69
          (Kelvin)
 
 Zero-point correction=                           0.033358 (Hartree/Particle)
 Thermal correction to Energy=                    0.073685
 Thermal correction to Enthalpy=                  0.081602
 Thermal correction to Gibbs Free Energy=        -0.206053
 Sum of electronic and zero-point Energies=            -55.341958
 Sum of electronic and thermal Energies=               -55.301631
 Sum of electronic and thermal Enthalpies=             -55.293714
 Sum of electronic and thermal Free Energies=          -55.581369
 
                     E (Thermal)             CV                S
                      KCal/Mol        Cal/Mol-Kelvin    Cal/Mol-Kelvin
 Total                   46.238             13.715             72.202
 Electronic               0.000              0.000              0.000
 Translational            7.452              2.981             45.005
 Rotational               7.452              2.981             20.234
 Vibrational             31.334              7.753              6.964
 Vibration     1          5.349              1.839              2.129
 Vibration     2          5.469              1.795              1.876
 Vibration     3          5.537              1.770              1.762
 Vibration     4          6.874              1.334              0.760
 Vibration     5          8.104              1.015              0.437
                       Q            Log10(Q)             Ln(Q)
 Total Bot       0.201003D+12         11.303202         26.026585
 Total V=0       0.135854D+14         13.133074         30.240020
 Vib (Bot)       0.606347D-01         -1.217278         -2.802887
 Vib (Bot)    1  0.994817D+00         -0.002257         -0.005196
 Vib (Bot)    2  0.854765D+00         -0.068153         -0.156929
 Vib (Bot)    3  0.796197D+00         -0.098980         -0.227909
 Vib (Bot)    4  0.367423D+00         -0.434833         -1.001241
 Vib (Bot)    5  0.243750D+00         -0.613056         -1.411613
 Vib (V=0)       0.409820D+01          0.612593          1.410548
 Vib (V=0)    1  0.161340D+01          0.207742          0.478344
 Vib (V=0)    2  0.149026D+01          0.173263          0.398953
 Vib (V=0)    3  0.144018D+01          0.158415          0.364765
 Vib (V=0)    4  0.112048D+01          0.049406          0.113760
 Vib (V=0)    5  0.105625D+01          0.023767          0.054725
 Electronic      0.100000D+01          0.000000          0.000000
 Translational   0.562221D+09          8.749907         20.147405
 Rotational      0.589622D+04          3.770574          8.682067
 Write normal modes, IRwNMS=   765 IRotNM= 0 NVibU=     6.
 Normal modes: 
                 1             2             3             4             5 
      1   0.110480D-01 -0.743341D-01 -0.154985D-01 -0.553287D-01 -0.687128D-01
      2  -0.122483D+00 -0.319019D-02 -0.626676D-02 -0.141033D-01 -0.209326D-02
      3   0.107756D-01  0.391375D-01 -0.438999D-01 -0.655365D-01  0.164377D-01
      4  -0.577139D-01  0.703638D+00  0.467093D+00  0.102123D+00 -0.410086D-01
      5   0.560190D+00  0.130080D+00  0.154673D-01 -0.425045D-01  0.961807D-02
      6  -0.525141D-02  0.579493D-01 -0.190403D-01 -0.836038D-01  0.698273D-01
      7  -0.354827D-01 -0.114039D+00  0.259491D+00  0.406243D-01  0.944098D+00
      8   0.587463D+00 -0.103771D+00  0.105839D+00  0.358841D-01  0.285774D-02
      9  -0.764393D-01 -0.105991D+00  0.660995D+00  0.350211D+00 -0.306616D+00
     10  -0.603079D-01  0.443224D+00 -0.511242D+00  0.626009D+00  0.516302D-01
     11   0.554174D+00  0.180164D-01 -0.342339D-01  0.202576D+00  0.166087D-01
     12  -0.680288D-01 -0.495749D+00 -0.319937D-01  0.643980D+00  0.839751D-02
                 6 
      1   0.434366D-02
      2  -0.156274D-02
      3  -0.734098D-01
      4  -0.204747D-01
      5   0.370816D-02
      6   0.995399D+00
      7  -0.515130D-01
      8   0.755382D-02
      9   0.597635D-02
     10   0.116354D-01
     11   0.104513D-01
     12   0.186066D-01

     ==================================================
      Anharmonic Data: Displacement Vectors Definition
     ==================================================
 Symm:  InNGrp=     InAxis=0 RotPrA=T RotCs=F.
 Symm:  Toler= 1.89D-08 Tol2= 1.00D-07 TolOrn= 1.89D-08 Tol2Or= 1.00D-07
 Atomic numbers input to symm: 
              1
     1            7
     2            1
     3            1
     4            1
 Atomic charges/masses input to symm: 
                 1 
      1   0.140031D+02
      2   0.100783D+01
      3   0.100783D+01
      4   0.100783D+01
 Coordinates input to symm: 
                 1             2             3             4 
      1   0.000000D+00  0.000000D+00  0.190272D+01 -0.195986D+01
      2   0.000000D+00  0.000000D+00  0.000000D+00 -0.525144D+00
      3   0.000000D+00  0.177634D+01 -0.492075D+00 -0.120953D+01
 PtGrp-- Translation vector:    0.003383    0.031084   -0.004424
 PtGrp-- Principal moments and axes of charge:
         Moments:        4.3384893        8.4153309       12.6046693
         Axes   :         0.901709        -0.415701        -0.118804
                          0.147874         0.038321         0.988263
                          0.406269         0.908694        -0.096026
 The molecule is not linear, ITop=1.
 Principal inertia moments (amu-bohr**2):
 Iaa = 0.433849D+01 Ibb= 0.841533D+01 Icc= 0.126047D+02
 Rotation matrix to Principal Axis frame: 
                 1             2             3 
      1  -0.901709D+00  0.415701D+00  0.118804D+00
      2  -0.147874D+00 -0.383210D-01 -0.988263D+00
      3  -0.406269D+00 -0.908694D+00  0.960258D-01
 PtGrp-- Principal moments and axes of charge:
         Moments:        4.3384893        8.4153309       12.6046693
         Axes   :         1.000000         0.000000         0.000000
                         -0.000000         1.000000        -0.000000
                         -0.000000         0.000000         1.000000
 Coordinates after PtGrp: 
                 1             2             3 
      1   0.584923D-02 -0.423500D-02 -0.307421D-01
      2   0.727523D+00  0.160992D+01  0.139833D+00
      3   0.152163D+01 -0.124234D+01  0.148056D+00
      4  -0.233042D+01 -0.308732D+00  0.139253D+00
 Rotation matrix after PtGrp: 
                 1             2             3 
      1   0.901709D+00 -0.415701D+00  0.118804D+00
      2   0.147874D+00  0.383210D-01 -0.988263D+00
      3   0.406269D+00  0.908694D+00  0.960258D-01
 Coordinates at top of FWGrp:
                 1             2             3 
      1   0.584923D-02 -0.423500D-02 -0.307421D-01
      2   0.727523D+00  0.160992D+01  0.139833D+00
      3   0.152163D+01 -0.124234D+01  0.148056D+00
      4  -0.233042D+01 -0.308732D+00  0.139253D+00

 Framework definition based on atomic masses: C1  
 After rot to inp orien Dipole Moment 
                 1 
      1  -0.534747D-02
      2  -0.205677D+00
      3   0.287949D-01
 After rot to inp orien Dipole Derivatives 
                 1             2             3             4             5 
      1  -0.150271D+00  0.146292D+00  0.195290D-02  0.143402D-01 -0.627213D-01
      2   0.111711D+00 -0.111774D+01  0.886813D-01 -0.569953D-01  0.375913D+00
      3   0.294819D-02  0.118177D+00 -0.186594D+00 -0.409074D-01  0.170004D-01
                 6             7             8             9            10 
      1   0.250797D-01  0.255612D-01 -0.416049D-02 -0.523939D-01  0.110370D+00
      2  -0.804658D-02 -0.218143D-01  0.379488D+00 -0.540433D-01 -0.329016D-01
      3   0.881982D-03  0.413307D-01 -0.681302D-01  0.698230D-01 -0.337155D-02
                11            12 
      1  -0.794104D-01  0.253613D-01
      2   0.362335D+00 -0.265914D-01
      3  -0.670471D-01  0.115889D+00
 After rot to inp orien Polarizability 
                 1 
      1   0.822660D+01
      2   0.104277D+01
      3   0.715586D+00
      4   0.181717D+01
      5   0.584010D+00
      6   0.493232D+01
 After rot to inp orien HyperPolarizability 
                 1 
      1   0.606326D+00
      2  -0.102448D+01
      3  -0.811898D+00
      4  -0.117227D+01
      5  -0.845826D+01
      6  -0.123523D+01
      7  -0.564724D+00
      8  -0.292969D+01
      9   0.135519D+00
     10   0.521961D+01
 After rot to inp orien Quadrupole Moment 
                 1 
      1   0.101784D+01
      2  -0.128437D+01
      3   0.266529D+00
      4   0.326642D+00
      5   0.436134D+00
      6   0.207953D+00
 After rot to inp orien QEq coupling tensors 
                 1             2             3             4 
      1  -0.110552D+01  0.291194D+00 -0.297772D+00 -0.201237D-01
      2  -0.391116D+00 -0.134947D-01 -0.171969D-02 -0.114251D-01
      3   0.214853D+01  0.404879D+00  0.209105D+00  0.335357D-01
      4  -0.277950D-01  0.267222D-01  0.145548D+00 -0.224017D-01
      5  -0.308467D+00 -0.179266D-02 -0.889180D-02 -0.968294D-02
      6  -0.104300D+01 -0.696073D+00  0.886674D-01 -0.134121D-01
 After rot to inp orien force vector number 1
 I=    1 X=   7.374541707450D-02 Y=   6.386829898819D-03 Z=   1.529632101367D-01
 I=    2 X=   3.093855100849D-02 Y=   7.798776869492D-03 Z=  -1.090033842184D-01
 I=    3 X=   3.831422123691D-02 Y=   1.224383195810D-02 Z=   3.182045045513D-02
 I=    4 X=  -1.429981893199D-01 Y=  -2.642943872642D-02 Z=  -7.578027637336D-02
 After rot to inp orien force vector number 2
 I=    1 X=   7.374541707450D-02 Y=   6.386829898819D-03 Z=   1.529632101367D-01
 I=    2 X=   3.093855100849D-02 Y=   7.798776869492D-03 Z=  -1.090033842184D-01
 I=    3 X=   3.831422123691D-02 Y=   1.224383195810D-02 Z=   3.182045045513D-02
 I=    4 X=  -1.429981893199D-01 Y=  -2.642943872642D-02 Z=  -7.578027637336D-02
 After rot to inp orien cartesian force constants 
                1             2             3             4             5 
      1  0.688903D+00
      2  0.494491D-01 -0.821903D-01
      3 -0.108930D+00  0.436212D-01  0.119538D+01
      4 -0.535497D-01 -0.176078D-01 -0.105368D-01  0.454843D-01
      5 -0.205233D-01  0.811640D-01  0.109945D-01  0.125470D-01 -0.675519D-01
      6  0.240288D-01 -0.197929D-01 -0.914714D+00 -0.231123D-01  0.356764D-02
      7 -0.494162D+00 -0.185007D-01  0.133733D+00 -0.262191D-03  0.448647D-02
      8  0.286555D-02  0.214268D-01 -0.257723D-01 -0.583428D-03  0.628629D-03
      9  0.860174D-01 -0.136536D-01 -0.140733D+00  0.636370D-01 -0.328296D-02
     10 -0.141191D+00 -0.133406D-01 -0.142657D-01  0.832764D-02  0.348983D-02
     11 -0.317913D-01 -0.204005D-01 -0.288434D-01  0.564422D-02 -0.142407D-01
     12 -0.111595D-02 -0.101747D-01 -0.139934D+00 -0.299880D-01 -0.112791D-01
                6             7             8             9            10 
      6  0.921408D+00
      7 -0.126858D-01  0.490071D+00
      8  0.663256D-02  0.334910D-02 -0.505908D-03
      9 -0.808538D-02 -0.133574D+00  0.107799D-01  0.136747D+00
     10  0.117693D-01  0.435306D-02 -0.563122D-02 -0.160808D-01  0.128511D+00
     11  0.959274D-02  0.106651D-01 -0.215495D-01  0.615669D-02  0.154820D-01
     12  0.139060D-02  0.125266D-01  0.835992D-02  0.120710D-01  0.185773D-01
               11            12 
     11  0.561906D-01
     12  0.130939D-01  0.126473D+00
 Z-matrix is all fixed cartesians, so copy forces.
 Force constants in Cartesian coordinates: 
                1             2             3             4             5 
      1  0.688903D+00
      2  0.494491D-01 -0.821903D-01
      3 -0.108930D+00  0.436212D-01  0.119538D+01
      4 -0.535497D-01 -0.176078D-01 -0.105368D-01  0.454843D-01
      5 -0.205233D-01  0.811640D-01  0.109945D-01  0.125470D-01 -0.675519D-01
      6  0.240288D-01 -0.197929D-01 -0.914714D+00 -0.231123D-01  0.356764D-02
      7 -0.494162D+00 -0.185007D-01  0.133733D+00 -0.262191D-03  0.448647D-02
      8  0.286555D-02  0.214268D-01 -0.257723D-01 -0.583428D-03  0.628629D-03
      9  0.860174D-01 -0.136536D-01 -0.140733D+00  0.636370D-01 -0.328296D-02
     10 -0.141191D+00 -0.133406D-01 -0.142657D-01  0.832764D-02  0.348983D-02
     11 -0.317913D-01 -0.204005D-01 -0.288434D-01  0.564422D-02 -0.142407D-01
     12 -0.111595D-02 -0.101747D-01 -0.139934D+00 -0.299880D-01 -0.112791D-01
                6             7             8             9            10 
      6  0.921408D+00
      7 -0.126858D-01  0.490071D+00
      8  0.663256D-02  0.334910D-02 -0.505908D-03
      9 -0.808538D-02 -0.133574D+00  0.107799D-01  0.136747D+00
     10  0.117693D-01  0.435306D-02 -0.563122D-02 -0.160808D-01  0.128511D+00
     11  0.959274D-02  0.106651D-01 -0.215495D-01  0.615669D-02  0.154820D-01
     12  0.139060D-02  0.125266D-01  0.835992D-02  0.120710D-01  0.185773D-01
               11            12 
     11  0.561906D-01
     12  0.130939D-01  0.126473D+00
 Final forces over variables, Energy=-5.53753154D+01:
 -7.37454171D-02-3.09385510D-02-3.83142212D-02 1.42998189D-01
 -6.38682990D-03-7.79877687D-03-1.22438320D-02 2.64294387D-02
 -1.52963210D-01 1.09003384D-01-3.18204505D-02 7.57802764D-02
 Leave Link  716 at Sun Jun 27 11:53:09 2021, MaxMem=   104857600 cpu:               0.4 elap:               0.2
 NDeriv=      6 NFrqRd=  0 NDerD0=      0 MskFDP=       0 MskDFD=       0 MskDF0=       0
 At 1st pt F.D. properties file   721 does not exist.
 At 1st pt F.D. properties file   722 does not exist.
 D2Numr ... symmetry will not be used.
     8 basis functions,    24 primitive gaussians,     8 cartesian basis functions
     5 alpha electrons        5 beta electrons
       nuclear repulsion energy        11.3349025770 Hartrees.
 NAtoms=    4 NActive=    4 NUniq=    4 SFac= 1.00D+00 NAtFMM=   60 NAOKFM=F Big=F
 Initial guess from the checkpoint file:  "/scratch/scr/zyzhu/xc02n14/202106271152.19080/Gau-19102.chk"
 B after Tr=    -0.000132    0.001453   -0.000127
         Rot=    1.000000   -0.000008   -0.000002   -0.000011 Ang=  -0.00 deg.
 SCF Done:  E(RHF) =  -55.3751949955     A.U. after    8 cycles
            NFock=  8  Conv=0.29D-08     -V/T= 2.0065
 NROrb=      8 NOA=     5 NOB=     5 NVA=     3 NVB=     3
 Symmetrizing basis deriv contribution to polar:
 IMax=3 JMax=2 DiffMx= 0.00D+00
 Calling FoFCou, ICntrl=  3107 FMM=F I1Cent=   0 AccDes= 0.00D+00.
 End of G2Drv F.D. properties file   721 does not exist.
 End of G2Drv F.D. properties file   722 does not exist.
 End of G2Drv F.D. properties file   788 does not exist.
          IDoAtm=1111
 End of Minotr F.D. properties file   721 does not exist.
 End of Minotr F.D. properties file   722 does not exist.
 End of Minotr F.D. properties file   788 does not exist.

 **********************************************************************

            Population analysis using the SCF Density.

 **********************************************************************

 Alpha  occ. eigenvalues --  -15.25532  -1.02492  -0.54604  -0.52471  -0.30077
 Alpha virt. eigenvalues --    0.42914   0.73823   0.83562
          Condensed to atoms (all electrons):
 Mulliken charges:
               1
     1  N   -0.492941
     2  H    0.174847
     3  H    0.162584
     4  H    0.155510
 Sum of Mulliken charges =  -0.00000
 Mulliken charges with hydrogens summed into heavy atoms:
               1
     1  N   -0.000000
 APT charges:
               1
     1  N   -0.487623
     2  H    0.131012
     3  H    0.159139
     4  H    0.197472
 Sum of APT charges =  -0.00000
 APT charges with hydrogens summed into heavy atoms:
               1
     1  N   -0.000000
 Electronic spatial extent (au):  <R**2>=             26.1538
 Charge=             -0.0000 electrons
 Dipole moment (field-independent basis, Debye):
    X=             -0.0183    Y=             -0.4883    Z=              0.0690  Tot=              0.4935
  Exact polarizability:   8.215   1.044   0.718   1.813   0.586   4.926
 Approx polarizability:   6.423   0.855   0.467   1.464   0.486   3.791
 GetPCM: File not found, return IValue=0.
 SCFChk:  SCF convergence  2.88D-09 required  1.00D-08
 Pair potential:
 LT D matrices:
                1             2             3             4             5 
      1  0.207491D+01
      2 -0.283166D+00  0.118861D+01
      3  0.642507D-02 -0.524472D-01  0.674107D+00
      4 -0.308557D-01  0.159332D+00 -0.152118D+00  0.194760D+01
      5  0.567840D-02 -0.699783D-01 -0.148363D-02 -0.119949D+00  0.707972D+00
      6 -0.844791D-01  0.185445D+00 -0.694088D-01 -0.197034D-01  0.582403D+00
      7 -0.836113D-01  0.234369D+00  0.523578D+00 -0.382879D-01 -0.254961D+00
      8 -0.901059D-01  0.330810D+00 -0.440448D+00 -0.174305D+00 -0.329319D+00
                6             7             8 
      6  0.535176D+00
      7 -0.211617D+00  0.551106D+00
      8 -0.179672D+00 -0.168949D+00  0.570278D+00
 PT:          0:
                1             2             3             4             5 
      1  0.207491D+01
      2 -0.283166D+00  0.118861D+01
      3  0.642507D-02 -0.524472D-01  0.674107D+00
      4 -0.308557D-01  0.159332D+00 -0.152118D+00  0.194760D+01
      5  0.567840D-02 -0.699783D-01 -0.148363D-02 -0.119949D+00  0.707972D+00
      6 -0.844791D-01  0.185445D+00 -0.694088D-01 -0.197034D-01  0.582403D+00
      7 -0.836113D-01  0.234369D+00  0.523578D+00 -0.382879D-01 -0.254961D+00
      8 -0.901059D-01  0.330810D+00 -0.440448D+00 -0.174305D+00 -0.329319D+00
                6             7             8 
      6  0.535176D+00
      7 -0.211617D+00  0.551106D+00
      8 -0.179672D+00 -0.168949D+00  0.570278D+00
 WT:          0:
                1             2             3             4             5 
      1  0.302154D+02
      2  0.594074D+00  0.119676D+01
      3  0.390520D-01  0.192087D-01  0.356388D+00
      4 -0.221102D-01  0.223733D-01 -0.332910D-01  0.588431D+00
      5  0.575328D-01  0.288790D-01 -0.737939D-02 -0.277786D-01  0.385064D+00
      6 -0.314863D+00  0.248295D+00 -0.327288D-01 -0.467617D-02  0.330277D+00
      7 -0.266420D+00  0.247343D+00  0.288547D+00 -0.957480D-02 -0.130487D+00
      8 -0.194821D+00  0.255072D+00 -0.227664D+00 -0.714387D-01 -0.166042D+00
                6             7             8 
      6  0.335320D+00
      7 -0.813106D-01  0.327971D+00
      8 -0.701746D-01 -0.691472D-01  0.311133D+00
 FFX after V2NN 
                1             2             3             4             5 
      1  0.000000D+00
      2  0.000000D+00  0.000000D+00
      3  0.000000D+00  0.000000D+00  0.000000D+00
      4  0.000000D+00  0.000000D+00  0.000000D+00  0.989663D+00
      5  0.000000D+00  0.000000D+00  0.000000D+00  0.304706D+00 -0.262799D+01
      6  0.000000D+00  0.000000D+00  0.000000D+00  0.381025D-02  0.198335D+00
      7  0.000000D+00  0.000000D+00  0.000000D+00  0.124937D+01  0.165170D-04
      8  0.000000D+00  0.000000D+00  0.000000D+00  0.165170D-04  0.124921D+01
      9  0.000000D+00  0.000000D+00  0.000000D+00  0.249706D-02 -0.247910D-01
     10  0.000000D+00  0.000000D+00  0.000000D+00 -0.167056D+01 -0.166579D-01
     11  0.000000D+00  0.000000D+00  0.000000D+00 -0.166579D-01  0.922550D+00
     12  0.000000D+00  0.000000D+00  0.000000D+00  0.672979D+00  0.432298D-02
     13  0.000000D+00  0.000000D+00  0.000000D+00 -0.568475D+00 -0.288065D+00
     14  0.000000D+00  0.000000D+00  0.000000D+00 -0.288065D+00  0.456237D+00
     15  0.000000D+00  0.000000D+00  0.000000D+00 -0.679286D+00 -0.177867D+00
                6             7             8             9            10 
      6  0.163833D+01
      7  0.249706D-02 -0.124266D+01
      8 -0.247910D-01  0.502573D-02 -0.130758D+01
      9 -0.249858D+01 -0.307309D-01  0.324436D-01  0.255024D+01
     10  0.672979D+00 -0.917791D-02 -0.117539D-04  0.568410D-01  0.170942D+01
     11  0.432298D-02 -0.117539D-04  0.384834D-01  0.140177D-04  0.228941D-01
     12  0.748008D+00  0.568410D-01  0.140177D-04 -0.293055D-01 -0.721327D+00
     13 -0.679286D+00  0.246823D-02 -0.503050D-02 -0.286072D-01 -0.296838D-01
     14 -0.177867D+00 -0.503050D-02  0.198909D-01 -0.766661D-02 -0.622445D-02
     15  0.112237D+00 -0.286072D-01 -0.766661D-02 -0.223591D-01 -0.849287D-02
               11            12            13            14            15 
     11 -0.976240D+00
     12 -0.318120D-02 -0.733180D+00
     13 -0.622445D-02 -0.849287D-02  0.595690D+00
     14  0.152069D-01 -0.115579D-02  0.299320D+00 -0.491335D+00
     15 -0.115579D-02  0.144769D-01  0.716386D+00  0.186689D+00 -0.104355D+00
 Entering OneElI...
 OneElI was handed   104856906 working-precision words.
 Calculate overlap and kinetic energy integrals
    NBasis =   8  MinDer = 2  MaxDer = 2
 Requested accuracy = 0.1000D-12
 ShPair: Thresh= 1.00D-13 NBox=     0 BxSize= 0.00D+00 RnKept= 3.96D+00
         NSMCal=                   15 NSMKep=                  15
 PrmmSu-InSpLW:  IPartL=    0 NPrtUS=    4 NPrtUL=    1 DoSpLW=F IThBeg=    0 IThEnd=    3 NThAct=    4.
 PrSmSu:  IncTry=   512 NBBP=             15 NTPThr=   100 NPartT=    4 Incr=           1 LDynOK=F GPUOK=F.
 PrsmSu:  NPrtUS=   4 ThrOK=T IAlg=2 LenDen=           0 ISkipM=0 DoSpLW=F IThBeg=    0 IThEnd=    3.
 Prism:   IPart=     0 DynPar=F LinDyn=F Incr=           1.
 PRISM was handed    26212026 working-precision words and    15 shell-pairs
 PRISM was handed    26212026 working-precision words and    15 shell-pairs
 PRISM was handed    26212026 working-precision words and    15 shell-pairs
 PRISM was handed    26212026 working-precision words and    15 shell-pairs
 IPart=  0 NShTot=           5 NBatch=           3 AvBLen=         1.7
 PrsmSu-ThDecC:  IPartSL=    0    0 NPrtUSL=    4    1 IThBeg=    0 IThEnd=    3 CPU=   -1 GPU=   -1 NThAct=    4.
 IPart=  3 NShTot=           3 NBatch=           2 AvBLen=         1.5
 IPart=  2 NShTot=           3 NBatch=           2 AvBLen=         1.5
 IPart=  1 NShTot=           4 NBatch=           2 AvBLen=         2.0
 PrsmSu-ThDecC:  IPartSL=    3    0 NPrtUSL=    4    1 IThBeg=    0 IThEnd=    3 CPU=   -1 GPU=   -1 NThAct=    3.
 PrsmSu-ThDecC:  IPartSL=    1    0 NPrtUSL=    4    1 IThBeg=    0 IThEnd=    3 CPU=   -1 GPU=   -1 NThAct=    2.
 PrsmSu-ThDecC:  IPartSL=    2    0 NPrtUSL=    4    1 IThBeg=    0 IThEnd=    3 CPU=   -1 GPU=   -1 NThAct=    1.
 PrSmSu:  NxtVal=              5.
 FFX after D2ST 
                1             2             3             4             5 
      1  0.000000D+00
      2  0.000000D+00  0.000000D+00
      3  0.000000D+00  0.000000D+00  0.000000D+00
      4  0.000000D+00  0.000000D+00  0.000000D+00  0.909420D+00
      5  0.000000D+00  0.000000D+00  0.000000D+00  0.474026D+00 -0.410087D+01
      6  0.000000D+00  0.000000D+00  0.000000D+00  0.273063D+00  0.295689D+00
      7  0.000000D+00  0.000000D+00  0.000000D+00  0.190607D+01 -0.373803D-03
      8  0.000000D+00  0.000000D+00  0.000000D+00 -0.373803D-03  0.190554D+01
      9  0.000000D+00  0.000000D+00  0.000000D+00 -0.584222D-01 -0.487728D-01
     10  0.000000D+00  0.000000D+00  0.000000D+00 -0.198060D+01 -0.469567D-01
     11  0.000000D+00  0.000000D+00  0.000000D+00 -0.469567D-01  0.144881D+01
     12  0.000000D+00  0.000000D+00  0.000000D+00  0.809644D+00  0.116691D-01
     13  0.000000D+00  0.000000D+00  0.000000D+00 -0.834893D+00 -0.426695D+00
     14  0.000000D+00  0.000000D+00  0.000000D+00 -0.426695D+00  0.746520D+00
     15  0.000000D+00  0.000000D+00  0.000000D+00 -0.102428D+01 -0.258586D+00
                6             7             8             9            10 
      6  0.110729D+01
      7 -0.584222D-01 -0.191147D+01
      8 -0.487728D-01  0.341724D-02 -0.194396D+01
      9 -0.260055D+01  0.488686D-01  0.533960D-01  0.261964D+01
     10  0.809644D+00  0.100445D-02 -0.554792D-05  0.268293D-01  0.199612D+01
     11  0.116691D-01 -0.554792D-05  0.235009D-01  0.661647D-05  0.509281D-01
     12  0.126004D+01  0.268293D-01  0.661647D-05 -0.849589D-02 -0.831062D+00
     13 -0.102428D+01  0.439636D-02 -0.303789D-02 -0.172757D-01 -0.165321D-01
     14 -0.258586D+00 -0.303789D-02  0.149178D-01 -0.462982D-02 -0.396586D-02
     15  0.233226D+00 -0.172757D-01 -0.462982D-02 -0.105967D-01 -0.541116D-02
               11            12            13            14            15 
     11 -0.148438D+01
     12 -0.109394D-01 -0.126315D+01
     13 -0.396586D-02 -0.541116D-02  0.847029D+00
     14  0.120696D-01 -0.736405D-03  0.433699D+00 -0.773507D+00
     15 -0.736405D-03  0.116045D-01  0.104697D+01  0.263952D+00 -0.234233D+00
 Entering OneElI...
 OneElI was handed   104856906 working-precision words.
 Calculate potential energy integrals
[...]
    Y2        0.00000  -0.00780   0.00000  -0.01566  -0.01266  -0.01266
    Z2        1.77634   0.10900   0.00000   0.05069   0.03188   1.80823
    X3        1.90272  -0.03831   0.00000  -0.06325  -0.08393   1.81879
    Y3        0.00000  -0.01224   0.00000  -0.02499  -0.02347  -0.02347
    Z3       -0.49208  -0.03182   0.00000  -0.05227  -0.07135  -0.56343
    X4       -1.95986   0.14300   0.00000   0.23921   0.21903  -1.74083
    Y4       -0.52514   0.02643   0.00000   0.03984   0.03591  -0.48924
    Z4       -1.20953   0.07578   0.00000   0.12130   0.10354  -1.10599
         Item               Value     Threshold  Converged?
 Maximum Force            0.152963     0.000450     NO 
 RMS     Force            0.077080     0.000300     NO 
 Maximum Displacement     0.219034     0.001800     NO 
 RMS     Displacement     0.085194     0.001200     NO 
 GradGradGradGradGradGradGradGradGradGradGradGradGradGradGradGradGradGrad


 ----------------------------------------------------------------------

 Electric dipole moment (input orientation):
 (Debye = 10**-18 statcoulomb cm , SI units = C m)
                  (au)            (Debye)         (10**-30 SI)
   Tot        0.207752D+00      0.528053D+00      0.176139D+01
   x         -0.534747D-02     -0.135919D-01     -0.453377D-01
   y         -0.205677D+00     -0.522779D+00     -0.174380D+01
   z          0.287949D-01      0.731893D-01      0.244133D+00

 Dipole polarizability, Alpha (input orientation).
 (esu units = cm**3 , SI units = C**2 m**2 J**-1)
 Alpha(0;0):
               (au)            (10**-24 esu)      (10**-40 SI)
   iso        0.462483D+01      0.685330D+00      0.762532D+00
   aniso      0.753099D+01      0.111598D+01      0.124169D+01
   xx         0.822660D+01      0.121906D+01      0.135638D+01
   yx         0.104277D+01      0.154522D+00      0.171929D+00
   yy         0.715586D+00      0.106039D+00      0.117984D+00
   zx         0.181717D+01      0.269276D+00      0.299610D+00
   zy         0.584010D+00      0.865414D-01      0.962903D-01
   zz         0.493232D+01      0.730894D+00      0.813229D+00

 First dipole hyperpolarizability, Beta (input orientation).
 ||, _|_  parallel and perpendicular components, (z) with respect to z axis,
 vector components x,y,z.  Values do not include the 1/n! factor of 1/2.
 (esu units = statvolt**-1 cm**4 , SI units = C**3 m**3 J**-2)
 Beta(0;0,0):
               (au)            (10**-30 esu)      (10**-50 SI)
   || (z)    -0.228203D+01     -0.197149D-01     -0.731700D-02
   _|_(z)    -0.760675D+00     -0.657164D-02     -0.243900D-02
   x         -0.940579D+01     -0.812587D-01     -0.301583D-01
   y         -0.618371D+01     -0.534225D-01     -0.198272D-01
   z         -0.114101D+02     -0.985746D-01     -0.365850D-01
   ||         0.320561D+01      0.276940D-01      0.102783D-01
   xxx        0.606326D+00      0.523818D-02      0.194410D-02
   xxy       -0.102448D+01     -0.885074D-02     -0.328486D-02
   yxy       -0.811898D+00     -0.701417D-02     -0.260324D-02
   yyy       -0.117227D+01     -0.101275D-01     -0.375873D-02
   xxz       -0.845826D+01     -0.730728D-01     -0.271202D-01
   yxz       -0.123523D+01     -0.106714D-01     -0.396059D-02
   yyz       -0.564724D+00     -0.487878D-02     -0.181071D-02
   zxz       -0.292969D+01     -0.253102D-01     -0.939364D-02
   zyz        0.135519D+00      0.117078D-02      0.434523D-03
   zzz        0.521961D+01      0.450933D-01      0.167359D-01

 ----------------------------------------------------------------------

 Dipole orientation:
     7          0.00000000          0.00000000          0.00000000
     1          0.04572247          1.75860326          0.24620503
     1          1.88894309         -0.52974513         -0.11717800
     1         -1.97810080         -1.22667665          0.40270233

 Electric dipole moment (dipole orientation):
 (Debye = 10**-18 statcoulomb cm , SI units = C m)
                  (au)            (Debye)         (10**-30 SI)
   Tot        0.207752D+00      0.528053D+00      0.176139D+01
   x          0.000000D+00      0.000000D+00      0.000000D+00
   y          0.000000D+00      0.000000D+00      0.000000D+00
   z          0.207752D+00      0.528053D+00      0.176139D+01

 Dipole polarizability, Alpha (dipole orientation).
 (esu units = cm**3 , SI units = C**2 m**2 J**-1)
 Alpha(0;0):
               (au)            (10**-24 esu)      (10**-40 SI)
   iso        0.462483D+01      0.685330D+00      0.762532D+00
   aniso      0.753099D+01      0.111598D+01      0.124169D+01
   xx         0.826682D+01      0.122502D+01      0.136302D+01
   yx         0.187110D+01      0.277269D+00      0.308503D+00
   yy         0.492620D+01      0.729988D+00      0.812221D+00
   zx        -0.975507D+00     -0.144555D+00     -0.160839D+00
   zy        -0.107734D-01     -0.159646D-02     -0.177630D-02
   zz         0.681474D+00      0.100984D+00      0.112360D+00

 First dipole hyperpolarizability, Beta (dipole orientation).
 ||, _|_  parallel and perpendicular components, (z) with respect to z axis,
 vector components x,y,z.  Values do not include the 1/n! factor of 1/2.
 (esu units = statvolt**-1 cm**4 , SI units = C**3 m**3 J**-2)
 Beta(0;0,0):
               (au)            (10**-30 esu)      (10**-50 SI)
   || (z)     0.956518D+00      0.826357D-02      0.306694D-02
   _|_(z)     0.318839D+00      0.275452D-02      0.102231D-02
   x         -0.955561D+01     -0.825530D-01     -0.306387D-01
   y         -0.119464D+02     -0.103207D+00     -0.383043D-01
   z          0.478259D+01      0.413179D-01      0.153347D-01
   ||         0.320561D+01      0.276940D-01      0.102783D-01
   xxx        0.188976D-01      0.163261D-03      0.605926D-04
   xxy       -0.860659D+01     -0.743543D-01     -0.275958D-01
   yxy       -0.270896D+01     -0.234033D-01     -0.868592D-02
   yyy        0.528850D+01      0.456885D-01      0.169568D-01
   xxz       -0.149447D+00     -0.129111D-02     -0.479182D-03
   yxz        0.112108D+01      0.968522D-02      0.359457D-02
   yyz        0.790833D+00      0.683218D-02      0.253570D-02
   zxz       -0.495138D+00     -0.427760D-02     -0.158759D-02
   zyz       -0.664023D+00     -0.573664D-02     -0.212910D-02
   zzz        0.952811D+00      0.823155D-02      0.305506D-02

 ----------------------------------------------------------------------

 Test job not archived.
 1\1\GINC-XC02N14\Freq\RHF\STO-3G\H3N1\ZYZHU\27-Jun-2021\0\\#t Freq(Anh
 armonic) NoSymm Temperature=2500 IOp(7/33=3)\\[No Title]\\0,1\N,0.,0.,
 0.\H,0.,0.,0.94\H,1.006874,0.,-0.260395\H,-1.037114,-0.277894,-0.64005
 4\\Version=ES64L-G16RevB.01\HF=-55.3753154\RMSD=5.500e-09\RMSF=7.708e-
 02\ZeroPoint=0.0333579\Thermal=0.0736846\Dipole=-0.0053475,-0.2056773,
 0.0287949\DipoleDeriv=-0.1502714,0.1117112,0.0029482,0.1462922,-1.1177
 353,0.1181768,0.0019529,0.0886813,-0.186594,0.0143402,-0.0569953,-0.04
 09074,-0.0627213,0.3759126,0.0170004,0.0250797,-0.0080466,0.000882,0.0
 255612,-0.0218143,0.0413307,-0.0041605,0.3794876,-0.0681302,-0.0523939
 ,-0.0540433,0.069823,0.11037,-0.0329016,-0.0033715,-0.0794104,0.362335
 1,-0.0670471,0.0253613,-0.0265914,0.1158889\Polar=8.2265989,1.0427658,
 0.7155859,1.8171654,0.5840104,4.9323169\HyperPolar=0.6063259,-1.024483
 1,-0.8118981,-1.1722734,-8.4582582,-1.2352277,-0.5647244,-2.9296898,0.
 1355191,5.2196061\Quadrupole=1.017843,-1.2843725,0.2665295,0.3266424,0
 .4361338,0.2079534\PG=C01 [X(H3N1)]\NImag=1\\0.68890308,0.04944908,-0.
 08219031,-0.10893028,0.04362123,1.19538088,-0.05354971,-0.01760777,-0.
 01053680,0.04548426,-0.02052328,0.08116400,0.01099447,0.01254698,-0.06
 755194,0.02402882,-0.01979294,-0.91471369,-0.02311225,0.00356764,0.921
 40847,-0.49416192,-0.01850072,0.13373282,-0.00026219,0.00448647,-0.012
 68583,0.49007105,0.00286555,0.02142677,-0.02577234,-0.00058343,0.00062
 863,0.00663256,0.00334910,-0.00050591,0.08601742,-0.01365359,-0.140733
 01,0.06363704,-0.00328296,-0.00808538,-0.13357363,0.01077986,0.1367473
 7,-0.14119145,-0.01334058,-0.01426573,0.00832764,0.00348983,0.01176926
 ,0.00435306,-0.00563122,-0.01608083,0.12851074,-0.03179134,-0.02040046
 ,-0.02884337,0.00564422,-0.01424069,0.00959274,0.01066515,-0.02154949,
 0.00615669,0.01548198,0.05619065,-0.00111595,-0.01017470,-0.13993417,-
 0.02998798,-0.01127915,0.00139060,0.01252664,0.00835992,0.01207103,0.0
 1857730,0.01309393,0.12647254\\0.07374542,0.00638683,0.15296321,0.0309
 3855,0.00779878,-0.10900338,0.03831422,0.01224383,0.03182045,-0.142998
 19,-0.02642944,-0.07578028\\0.04987366,0.13662662,-0.08436789,-0.04431
 870,0.25980500,0.07759246,-0.00479387,-0.00207875,0.04014877,-0.002740
 22,0.01878351,0.02259199,-0.39326689,-0.00160705,-0.01782642,0.0269561
 4,-0.27225207,-0.03925328,-0.03050949,0.32455955,0.02773853,-0.0182855
 2,-0.11469131,0.01689818,0.00468656,-0.01975375,0.00133161,0.01164963,
 -0.20453550,0.02612449,0.08726851,0.02346480,0.00051396,-0.03051594,0.
 15466150,-0.01779428,0.03087565,0.02624160,-0.02139420,-0.00833166,0.0
 3546013,0.00722858,-0.02076070,-0.04557378,0.01103645,-0.02679427,-0.0
 1985656,-0.01272825,0.00284754,0.00257729,0.00222174,0.00194934,0.0264
 0921,-0.00178329,0.02199740,0.04912538,0.03565141,0.04619338,-0.019779
 00,-0.00527953,-0.02179154,-0.02021644,-0.00884416,-0.01612795,-0.0091
 2993,-0.02152771,-0.01351309,-0.01379453,-0.01694498,-0.00130762,0.033
 24721,0.00428617,0.00253091,-0.01117880,0.00312917,0.01228980,-0.00827
 388,0.00952964,0.02265689,0.00170039,0.01416139,0.37630329,0.08165987,
 0.01002769,0.01077486,-0.00983606,-0.37484199,-0.01507733,-0.00393079,
 0.02678203,-0.06816315,-0.00456447,-0.01709654,-0.33241233,-0.06256954
 ,0.04261550,0.31560031,0.06073202,-0.03612538,0.03637997,0.02464910,0.
 01238054,-0.00411913,0.00012625,0.01217646,-0.01986254,0.02955678,-0.0
 5870892,-0.00738697,0.00244908,0.02090036,-0.00192789,-0.02282861,0.02
 182187,0.01741220,-0.00486911,-0.03436809,0.02745341,-0.00080490,-0.02
 771750,-0.03115242,0.01001957,0.05984266,-0.06981171,-0.01651344,-0.01
 384184,0.00842160,0.00836901,0.00463556,-0.01239830,-0.00917725,-0.013
 71320,0.07378841,-0.02732639,0.01776550,-0.00610975,0.01195144,-0.0305
 8585,0.00376541,-0.00194673,0.01598669,-0.00434556,0.01732168,-0.00316
 634,-0.06130316,-0.01422122,-0.01827509,0.03178826,0.00823604,0.021227
 38,0.00659542,-0.00070471,0.00224293,0.02291948,0.00668989,-0.00519522
 ,-0.23242262,-0.00991893,0.00857641,0.30765021,-0.01797844,-0.26166787
 ,-0.00247069,-0.00581581,-0.24435410,0.03645062,-0.00079331,-0.0396689
 0,-0.00760606,0.00180030,0.00600261,-0.19738649,-0.00553094,0.09824862
 ,0.17807658,0.00509233,-0.07127177,0.08023011,-0.01998357,-0.13209650,
 -0.02971003,-0.00098261,0.02003011,-0.06708487,-0.02748767,-0.01120293
 ,0.00429927,0.00145548,0.03940551,0.00005528,0.01986734,-0.00802892,-0
 .19212678,-0.00075192,0.08656766,0.05107445,0.00149991,-0.03313037,0.1
 2163416,-0.00593650,-0.04609530,0.15466320,0.03571831,0.06880038,-0.00
 426990,-0.00002438,-0.00072021,0.01656479,0.00616485,0.01941817,-0.166
 95809,0.03819991,0.04229542,0.02128523,0.00256003,-0.00573922,0.000383
 33,0.00109884,-0.02017366,0.00518851,-0.04185878,-0.01638253,0.0818630
 6,0.02426130,0.07685159,0.01520306,0.00101382,0.00615353,-0.00956777,0
 .00158195,-0.00734198,-0.08749835,-0.02685707,-0.07566313,0.41258409,0
 .10497043,0.03168121,0.36618038,0.04040174,0.11843547,-0.01744342,0.00
 300033,-0.06760315,0.02940259,0.00246592,-0.04539381,0.02396201,0.0011
 6942,0.01096758,-0.08770726,0.01336076,-0.01899693,0.06361078,-0.01347
 728,0.04084046,-0.04396963,-0.01061173,-0.07558284,-0.01416432,-0.0028
 4412,0.01694781,0.05156151,-0.00610725,-0.01131961,0.00363710,-0.00228
 789,0.02745799,-0.00218340,0.00967062,-0.00321956,-0.07517471,0.004586
 42,0.04092733,0.02564548,-0.00132807,-0.01638494,0.05383364,-0.0051743
 9,-0.02642342,-0.35117103,-0.09735903,-0.22299438,0.00220515,-0.000791
 22,0.00714867,0.00657243,-0.00127548,-0.00430441,0.34239345,-0.1013290
 9,0.02503221,-0.06800085,-0.00188186,0.00696824,0.00229992,0.00378522,
 -0.01291882,0.00191605,0.09942573,-0.01908164,-0.20329841,-0.05834892,
 -0.14036586,-0.02165311,-0.00915665,-0.00545859,0.00480139,0.00372069,
 0.00188104,0.22015013,0.06378488,0.14394341,-1.45597156,0.00456919,0.2
 0977943,0.48447706,0.01616261,-0.01177394,0.01593870,-0.00347632,-0.00
 113148,-0.00260996,0.00257865,0.02142582,-0.00825158,0.00036213,0.0102
 7842,-0.05570675,-0.01056758,0.10744853,0.04328139,0.00595074,-0.13410
 494,1.47777746,0.01553276,-0.43963584,-0.01355377,-0.00366478,0.005884
 68,-1.46756469,0.00462742,-0.25723032,0.00931316,0.00021301,-0.0202157
 8,-0.00056735,-0.00682475,0.27622918,-0.40177397,0.00397534,-0.0807809
 2,-0.04536207,0.00251796,0.02212571,0.43871952,-0.00738524,0.06208999,
 -0.03774459,-0.01662564,-0.04370975,0.00022503,0.00072401,0.00654068,0
 .00334100,0.00198431,0.00841651,0.03417856,-0.01177527,0.02602507,-0.0
 1722418,0.00290118,-0.01148846,0.00518420,-0.00504323,0.00121691,0.000
 89193,0.01391732,-0.01575352,-0.02699634,-0.00957037,-0.01489366,0.003
 21215,-0.00021712,0.00453070,-0.00496837,-0.00136057,-0.00343478,0.028
 75256,0.01114805,0.01379773,0.64894777,0.01276784,0.44419600,-0.011394
 48,-0.00019454,-2.84656169,-0.47084813,0.00864632,0.02513395,0.4512674
 6,0.00951400,-0.54881589,-0.00004147,-0.01093181,0.56722073,-0.0005513
 3,0.01669342,2.77973207,-0.00029759,-0.00539857,-2.75933979,-0.1431570
 3,-0.01073796,0.00233658,0.01782493,0.00079875,-0.00035785,0.11796044,
 -0.00285928,0.07018984,0.00231437,0.00070108,-0.01558712,-0.00582199,0
 .00316806,-0.04004945,0.04471853,-0.00534290,0.05725435,-0.04083603,0.
 00094708,-0.01717075,-0.00468061,0.00197237,-0.03550022,-0.03494262,-0
 .01067619,-0.01607606,0.00175574,0.00061906,0.00120677,0.00737165,-0.0
 0100986,0.00079811,0.02581523,-0.01942256,0.03443004,-0.00207836,0.001
 58441,-0.00281771,-0.00547285,0.00677116,-0.01455327,0.00242345,0.0110
 6699,-0.01705906,-0.03277272,-0.01115598,0.00957527,0.01599967,0.00449
 296,-0.00322154,0.00270188,0.00153525,-0.00458339,0.01407118,0.0051277
 7,-0.00177034,-0.40585572,-0.06728435,0.69589106,0.08919060,-0.0415295
 3,-0.88521161,-0.06309050,0.03355317,0.01322742,0.08169943,0.04162967,
 -0.38778090,-0.05341828,-0.03222452,0.37543134,-0.01515552,0.00413165,
 0.81787986,-0.00760949,0.03018300,-0.77367555,0.40291823,0.01114778,-0
 .12312825,-0.01728870,-0.00897818,0.01957170,-0.37719012,-0.03046547,-
 0.22543099,0.05059760,0.00689865,0.00004204,-0.01739091,0.01371540,0.1
 9972430,-0.09466088,0.02266928,0.02347470,-0.00792496,0.01139361,-0.02
 735671,0.09878890,-0.02839240,0.00573979,0.06602799,0.02258341,0.02071
 023,-0.00132023,-0.00042697,0.00319331,-0.00843941,0.00985141,0.003796
 93,-0.05626836,0.05612015,-0.08267917,0.04435021,-0.00822730,0.0123075
 1,-0.01692375,-0.01588500,0.02566464,-0.00567048,-0.03200786,0.0447070
 2,0.02062580,0.01472860,0.04385706,0.00230702,0.01184167,-0.01684760,0
 .00476765,-0.00481429,-0.00185778,-0.02770047,-0.02175598,-0.02515168,
 0.14018767,0.02272219,0.09486576,-0.00838674,-0.00413860,-1.24381911,-
 0.35177822,-0.03972368,0.03805841,0.38041319,-0.04009300,-0.13434971,0
 .00061817,0.04532496,0.12685440,0.03385800,0.01037766,1.18794249,-0.02
 658735,0.00405511,-1.12774380,0.05918526,-0.00785686,-0.02700896,-0.00
 064673,0.00155869,0.00833436,-0.04311921,-0.00461557,-0.00365609,0.004
 32219,0.00083950,0.01365796,-0.00931896,0.00640124,-0.01652382,0.00181
 064,0.00186097,0.03475259,-0.01410472,-0.00731274,-0.03584584,0.016227
 01,0.00812770,0.00927257,0.15240529,0.02485834,-0.00266270,-0.02798824
 ,-0.00679066,-0.01560501,-0.01541932,-0.00262517,-0.00393293,-0.108997
 72,0.02198637,0.04314004,-0.00080176,-0.00644079,-0.00616265,-0.005113
 81,-0.00010307,0.00652195,-0.00267593,-0.01544251,-0.04349935,-0.02728
 189,-0.00810004,0.02112404,0.00263366,0.00263946,-0.02435285,0.0024475
 8,-0.00313092,-0.00817933,0.02220064,0.00859150,0.01140814,-0.39059804
 ,0.03687179,0.02755821,0.08448750,0.05682522,-0.34630189,-0.10528266,-
 0.01352128,0.10075622,0.15027909,-0.00377937,-0.03654307,0.00372070,0.
 01150480,0.01578213,0.04013944,-0.00121961,0.49092785,-0.09886572,-0.0
 0364802,-0.44588231,0.58026125,0.01218098,-0.06482633,-0.04758922,-0.0
 0457894,0.05037364,-0.50905335,0.01824830,-0.02104918,-0.01892879,-0.0
 0221467,0.01578990,0.00329426,-0.00716144,0.00333232,-0.00192554,-0.02
 429909,-0.09865127,-0.00083576,0.00528705,-0.03095412,0.00539480,0.018
 99896,0.13464474,-0.08438055,-0.03553149,-0.12041738,0.00259278,-0.003
 14649,0.00835264,-0.02361867,-0.00887219,-0.00263350,0.10540644,-0.051
 34072,0.03003403,-0.04161713,0.00423115,0.00497104,0.00157337,-0.00044
 060,0.00192695,0.00001307,0.04755017,-0.03693203,-0.12270140,-0.031306
 53,-0.04597468,-0.00105474,-0.00535973,-0.01409143,0.00905790,-0.00336
 443,-0.00503935,0.11469824,0.04003069,0.06510545,0.68856920,0.26343474
 ,-0.11662363,0.61305338,0.13592052,-0.02754684,-0.00222411,0.00164581,
 0.01196203,0.01638753,0.00831177,-0.02847700,-0.00076601,0.00007574,0.
 00087589,-0.02673532,-0.00477502,0.08370329,0.00578171,0.00312268,-0.0
 6234518,0.16689391,-0.00342302,-0.06073024,-0.01420747,-0.00256280,0.0
 1067039,-0.16153870,-0.00136457,-0.01474462,0.00421836,0.00044366,0.00
 973895,0.00010728,0.00335884,0.01374741,-0.03976971,-0.00130224,0.0063
 9010,-0.00238567,0.00429775,-0.00831943,0.04489436,-0.00093525,0.01458
 215,-0.85323900,-0.26165753,-0.56428518,0.00004405,-0.00582471,0.01028
 322,0.00885226,-0.00243792,-0.00273898,0.84434268,-0.27038194,0.159845
 25,-0.13937287,-0.00216522,0.01786216,0.00154506,0.00262698,-0.0087417
 3,-0.00206026,0.26992017,-0.16896568,-0.54654835,-0.12984326,-0.062546
 54,-0.01535807,-0.00665442,-0.01303868,0.00516548,-0.00339040,-0.01265
 282,0.55674094,0.13988808,0.08823805,4.28172026,-0.01930024,-1.0004263
 7,-1.27376614,0.00086243,-0.75493358,-0.02524576,0.01317265,0.00452311
 ,-0.01896526,0.00404776,-0.03883513,-0.00141792,-0.00405995,0.00106495
 ,0.03842331,0.00359047,0.01882122,-0.02699859,-0.00102752,0.02050182,-
 4.26365143,0.00166828,1.27227505,0.04508395,0.00168332,-0.01320228,4.2
 1938150,0.00565846,1.05964264,-0.00437485,-0.00376163,0.03098336,-0.00
 131969,-0.00067510,-1.09965794,1.22856755,-0.00163510,0.73059133,0.023
 06163,-0.00106529,-0.03987537,-1.24694483,0.00655735,-0.68996450,0.007
 17693,0.00445931,-0.00303202,-0.00087294,-0.00167113,0.00177756,-0.000
 81402,-0.00122173,-0.00468435,-0.00548998,0.00959402,-0.02038114,0.004
 93034,-0.00535107,0.00678682,-0.00124325,-0.00267650,0.00903194,-0.003
 85697,-0.00156645,0.00456238,0.00677528,-0.00281780,0.00552103,-0.0005
 8615,0.00351074,0.00055233,-0.01212793,-0.00086281,-0.00075146,0.00593
 881,0.00016988,-0.00532191,-2.16016665,-0.00166352,-2.14523150,0.10672
 481,-0.04953910,8.77169035,2.15162112,-0.00297356,-0.11868686,-2.11595
 750,-0.00438883,2.20691892,0.02085805,0.00915187,-2.24019239,-0.091240
 43,0.02495638,-8.77560935,0.10793542,-0.01664006,8.71183837,0.00046095
 ,0.00220535,-0.00720505,-0.02885269,-0.00264869,0.00199546,0.02644416,
 -0.00372402,-0.03191161,0.01199820,-0.00049217,0.02018539,-0.00188258,
 0.00234238,0.00261201,-0.01948385,0.01385545,-0.00419514,0.01381157,-0
 .00275682,0.04930008,0.00481172,-0.00581387,-0.04235091,0.00808457,0.0
 0243173,0.01916710,-0.00681094,-0.00211436,-0.01869046,0.00194758,0.00
 187381,0.00086055,-0.00322122,0.00977637,-0.02977582,0.01668285,-0.005
 68615,0.01308807,-0.00643373,-0.00189904,0.00911421,-0.00528476,-0.002
 19118,0.00757354,0.00399946,0.01072728,0.00811414,-0.00306014,-0.00146
 117,0.01447090,0.00039787,-0.00430175,-0.00275404,-0.00133720,-0.00496
 436,-0.01983101\\@


  THE LARGE PRINT GIVETH,
  AND THE SMALL PRINT TAKETH AWAY.

                     -- TOM WAITS
 Job cpu time:       0 days  0 hours  0 minutes 59.0 seconds.
 Elapsed time:       0 days  0 hours  0 minutes 18.8 seconds.
 File lengths (MBytes):  RWF=     43 Int=      0 D2E=      0 Chk=     38 Scr=      1
 Normal termination of Gaussian 16 at Sun Jun 27 11:53:26 2021.
