 Entering Gaussian System, Link 0=/share/apps/gaussian/G09C01/g09/g09
 Initial command:
 /share/apps/gaussian/G09C01/g09/l1.exe /scratch/scr/zyzhu/xc02n13/202106271155.31604/Gau-31625.inp -scrdir=/scratch/scr/zyzhu/xc02n13/202106271155.31604/
 Entering Link 1 = /share/apps/gaussian/G09C01/g09/l1.exe PID=     31626.
  
 Copyright (c) 1988,1990,1992,1993,1995,1998,2003,2009,2011,
            Gaussian, Inc.  All Rights Reserved.
  
 This is part of the Gaussian(R) 09 program.  It is based on
 the Gaussian(R) 03 system (copyright 2003, Gaussian, Inc.),
 the Gaussian(R) 98 system (copyright 1998, Gaussian, Inc.),
 the Gaussian(R) 94 system (copyright 1995, Gaussian, Inc.),
 the Gaussian 92(TM) system (copyright 1992, Gaussian, Inc.),
 the Gaussian 90(TM) system (copyright 1990, Gaussian, Inc.),
 the Gaussian 88(TM) system (copyright 1988, Gaussian, Inc.),
 the Gaussian 86(TM) system (copyright 1986, Carnegie Mellon
 University), and the Gaussian 82(TM) system (copyright 1983,
 Carnegie Mellon University). Gaussian is a federally registered
 trademark of Gaussian, Inc.
  
 This software contains proprietary and confidential information,
 including trade secrets, belonging to Gaussian, Inc.
  
 This software is provided under written license and may be
 used, copied, transmitted, or stored only in accord with that
 written license.
  
 The following legend is applicable only to US Government
 contracts under FAR:
  
                    RESTRICTED RIGHTS LEGEND
  
 Use, reproduction and disclosure by the US Government is
 subject to restrictions as set forth in subparagraphs (a)
 and (c) of the Commercial Computer Software - Restricted
 Rights clause in FAR 52.227-19.
  
 Gaussian, Inc.
 340 Quinnipiac St., Bldg. 40, Wallingford CT 06492
  
  
 ---------------------------------------------------------------
 Warning -- This program may not be used in any manner that
 competes with the business of Gaussian, Inc. or will provide
 assistance to any competitor of Gaussian, Inc.  The licensee
 of this program is prohibited from giving any competitor of
 Gaussian, Inc. access to this program.  By using this program,
 the user acknowledges that Gaussian, Inc. is engaged in the
 business of creating and licensing software in the field of
 computational chemistry and represents and warrants to the
 licensee that it is not a competitor of Gaussian, Inc. and that
 it will not use this program in any manner prohibited above.
 ---------------------------------------------------------------
  

 Cite this work as:
 Gaussian 09, Revision C.01,
 M. J. Frisch, G. W. Trucks, H. B. Schlegel, G. E. Scuseria, 
 M. A. Robb, J. R. Cheeseman, G. Scalmani, V. Barone, B. Mennucci, 
 G. A. Petersson, H. Nakatsuji, M. Caricato, X. Li, H. P. Hratchian, 
 A. F. Izmaylov, J. Bloino, G. Zheng, J. L. Sonnenberg, M. Hada, 
 M. Ehara, K. Toyota, R. Fukuda, J. Hasegawa, M. Ishida, T. Nakajima, 
 Y. Honda, O. Kitao, H. Nakai, T. Vreven, J. A. Montgomery, Jr., 
 J. E. Peralta, F. Ogliaro, M. Bearpark, J. J. Heyd, E. Brothers, 
 K. N. Kudin, V. N. Staroverov, T. Keith, R. Kobayashi, J. Normand, 
 K. Raghavachari, A. Rendell, J. C. Burant, S. S. Iyengar, J. Tomasi, 
 M. Cossi, N. Rega, J. M. Millam, M. Klene, J. E. Knox, J. B. Cross, 
 V. Bakken, C. Adamo, J. Jaramillo, R. Gomperts, R. E. Stratmann, 
 O. Yazyev, A. J. Austin, R. Cammi, C. Pomelli, J. W. Ochterski, 
 R. L. Martin, K. Morokuma, V. G. Zakrzewski, G. A. Voth, 
 P. Salvador, J. J. Dannenberg, S. Dapprich, A. D. Daniels, 
 O. Farkas, J. B. Foresman, J. V. Ortiz, J. Cioslowski, 
 and D. J. Fox, Gaussian, Inc., Wallingford CT, 2010.
 
 ******************************************
 Gaussian 09:  EM64L-G09RevC.01 23-Sep-2011
                27-Jun-2021 
 ******************************************
 %nproc=4
 Will use up to    4 processors via shared memory.
 -------------------------------------------------------
 #t Freq(Anharmonic) NoSymm Temperature=2500 IOp(7/33=3)
 -------------------------------------------------------
 ----------
 [No Title]
 ----------
 Charge =  0 Multiplicity = 1
 Symbolic Z-Matrix:
 N                     0.        0.        0. 
 H                     0.        0.        0.94 
 H                     1.00687   0.       -0.2604 
 H                    -1.03711  -0.27789  -0.64005 
 

 GradGradGradGradGradGradGradGradGradGradGradGradGradGradGradGradGradGrad
 Initialization pass.
 Number of steps in this run=      2 maximum allowed number of steps=      2.
 GradGradGradGradGradGradGradGradGradGradGradGradGradGradGradGradGradGrad

 NDeriv=  12 NFrqRd=  0 LFDDif=       1
 Numerical evaluation of third derivatives.
 Nuclear step= 0.025000 Angstroms, electric field step= 0.000333 atomic units, NStep=1.
                    Distance matrix (angstroms):
                    1          2          3          4
     1  N    0.000000
     2  H    0.940000   0.000000
     3  H    1.040000   1.566762   0.000000
     4  H    1.250000   1.910341   2.097440   0.000000
 Symmetry turned off by external request.
 Framework group  C1[X(H3N)]
 Deg. of freedom     6
 Rotational constants (GHZ):    415.9837803    214.4587322    143.1803681
     8 basis functions,    24 primitive gaussians,     8 cartesian basis functions
     5 alpha electrons        5 beta electrons
       nuclear repulsion energy        11.3328979917 Hartrees.
 NAtoms=    4 NActive=    4 NUniq=    4 SFac= 1.00D+00 NAtFMM=   60 NAOKFM=F Big=F
 Harris functional with IExCor=  205 diagonalized for initial guess.
 ExpMin= 1.69D-01 ExpMax= 9.91D+01 ExpMxC= 9.91D+01 IAcc=1 IRadAn=         1 AccDes= 0.00D+00
 HarFok:  IExCor=  205 AccDes= 0.00D+00 IRadAn=         1 IDoV= 1
 ScaDFX=  1.000000  1.000000  1.000000  1.000000
 FoFCou: FMM=F IPFlag=           0 FMFlag=      100000 FMFlg1=           0
         NFxFlg=           0 DoJE=T BraDBF=F KetDBF=T FulRan=T
         Omega=  0.000000  0.000000  1.000000  0.000000  0.000000 ICntrl=     500 IOpCl=  0
         NMat0=    1 NMatS0=    1 NMatT0=    0 NMatD0=    1 NMtDS0=    0 NMtDT0=    0
         I1Cent=           4 NGrid=           0.
 Symmetry not used in FoFCou.
 SCF Done:  E(RHF) =  -55.3753154186     A.U. after   10 cycles
             Convg  =    0.5540D-08             -V/T =  2.0065
 NROrb=      8 NOA=     5 NOB=     5 NVA=     3 NVB=     3
 Symmetrizing basis deriv contribution to polar:
 IMax=3 JMax=2 DiffMx= 0.00D+00
 Calling FoFCou, ICntrl=  3107 FMM=F I1Cent=   0 AccDes= 0.00D+00.
 End of G2Drv Frequency-dependent properties file   721 does not exist.
 End of G2Drv Frequency-dependent properties file   722 does not exist.
          IDoAtm=1111
 End of Minotr Frequency-dependent properties file   721 does not exist.
 End of Minotr Frequency-dependent properties file   722 does not exist.

 **********************************************************************

            Population analysis using the SCF density.

 **********************************************************************

 Alpha  occ. eigenvalues --  -15.25579  -1.02528  -0.54604  -0.52463  -0.30104
 Alpha virt. eigenvalues --    0.42903   0.73757   0.83504
          Condensed to atoms (all electrons):
 Mulliken atomic charges:
              1
     1  N   -0.492232
     2  H    0.174705
     3  H    0.162387
     4  H    0.155139
 Sum of Mulliken atomic charges =   0.00000
 Mulliken charges with hydrogens summed into heavy atoms:
              1
     1  N    0.000000
 Sum of Mulliken charges with hydrogens summed into heavy atoms =   0.00000
 APT atomic charges:
              1
     1  N   -0.484867
     2  H    0.130378
     3  H    0.158291
     4  H    0.196198
 Sum of APT charges=   0.00000
 APT Atomic charges with hydrogens summed into heavy atoms:
              1
     1  N    0.000000
     2  H    0.000000
     3  H    0.000000
     4  H    0.000000
 Sum of APT charges=   0.00000
 Electronic spatial extent (au):  <R**2>=             26.1625
 Charge=              0.0000 electrons
 Dipole moment (field-independent basis, Debye):
    X=             -0.0136    Y=             -0.5228    Z=              0.0732  Tot=              0.5281
  Exact polarizability:   8.227   1.043   0.716   1.817   0.584   4.932
 Approx polarizability:   6.432   0.856   0.469   1.467   0.485   3.794
 GetPCM: File not found, return IValue=0.
 LT D matrices:
                1             2             3             4             5 
      1  0.207505D+01
      2 -0.283892D+00  0.119237D+01
      3  0.669484D-02 -0.538887D-01  0.674045D+00
      4 -0.331159D-01  0.171456D+00 -0.151387D+00  0.194426D+01
      5  0.590781D-02 -0.712106D-01 -0.160022D-02 -0.119335D+00  0.708016D+00
      6 -0.842473D-01  0.184342D+00 -0.689287D-01 -0.245623D-01  0.583029D+00
      7 -0.833510D-01  0.233177D+00  0.524323D+00 -0.437363D-01 -0.254569D+00
      8 -0.897879D-01  0.329407D+00 -0.439863D+00 -0.180687D+00 -0.328907D+00
                6             7             8 
      6  0.535622D+00
      7 -0.211537D+00  0.551596D+00
      8 -0.179513D+00 -0.168701D+00  0.570959D+00
 PT:          0:
                1             2             3             4             5 
      1  0.207505D+01
      2 -0.283892D+00  0.119237D+01
      3  0.669484D-02 -0.538887D-01  0.674045D+00
      4 -0.331159D-01  0.171456D+00 -0.151387D+00  0.194426D+01
      5  0.590781D-02 -0.712106D-01 -0.160022D-02 -0.119335D+00  0.708016D+00
      6 -0.842473D-01  0.184342D+00 -0.689287D-01 -0.245623D-01  0.583029D+00
      7 -0.833510D-01  0.233177D+00  0.524323D+00 -0.437363D-01 -0.254569D+00
      8 -0.897879D-01  0.329407D+00 -0.439863D+00 -0.180687D+00 -0.328907D+00
                6             7             8 
      6  0.535622D+00
      7 -0.211537D+00  0.551596D+00
      8 -0.179513D+00 -0.168701D+00  0.570959D+00
 WT:          0:
                1             2             3             4             5 
      1  0.302165D+02
      2  0.593565D+00  0.119835D+01
      3  0.393112D-01  0.190050D-01  0.356447D+00
      4 -0.244301D-01  0.236130D-01 -0.335208D-01  0.587997D+00
      5  0.577610D-01  0.286697D-01 -0.734448D-02 -0.281976D-01  0.385179D+00
      6 -0.314806D+00  0.247962D+00 -0.325050D-01 -0.703987D-02  0.330592D+00
      7 -0.266326D+00  0.246986D+00  0.288875D+00 -0.118362D-01 -0.130322D+00
      8 -0.194665D+00  0.254645D+00 -0.227456D+00 -0.734389D-01 -0.165886D+00
                6             7             8 
      6  0.335530D+00
      7 -0.813171D-01  0.328157D+00
      8 -0.701554D-01 -0.691285D-01  0.311254D+00
 FFX after V2NN 
                1             2             3             4             5 
      1  0.000000D+00
      2  0.000000D+00  0.000000D+00
      3  0.000000D+00  0.000000D+00  0.000000D+00
      4  0.000000D+00  0.000000D+00  0.000000D+00  0.987699D+00
      5  0.000000D+00  0.000000D+00  0.000000D+00  0.293886D+00 -0.262337D+01
      6  0.000000D+00  0.000000D+00  0.000000D+00  0.628763D-02  0.181371D+00
      7  0.000000D+00  0.000000D+00  0.000000D+00  0.124887D+01  0.000000D+00
      8  0.000000D+00  0.000000D+00  0.000000D+00  0.000000D+00  0.124887D+01
      9  0.000000D+00  0.000000D+00  0.000000D+00  0.000000D+00  0.000000D+00
     10  0.000000D+00  0.000000D+00  0.000000D+00 -0.167087D+01  0.000000D+00
     11  0.000000D+00  0.000000D+00  0.000000D+00  0.000000D+00  0.922149D+00
     12  0.000000D+00  0.000000D+00  0.000000D+00  0.670599D+00  0.000000D+00
     13  0.000000D+00  0.000000D+00  0.000000D+00 -0.565702D+00 -0.293886D+00
     14  0.000000D+00  0.000000D+00  0.000000D+00 -0.293886D+00  0.452348D+00
     15  0.000000D+00  0.000000D+00  0.000000D+00 -0.676887D+00 -0.181371D+00
                6             7             8             9            10 
      6  0.163567D+01
      7  0.000000D+00 -0.124213D+01
      8  0.000000D+00  0.503589D-02 -0.130731D+01
      9 -0.249774D+01 -0.282795D-01  0.767223D-02  0.254943D+01
     10  0.670599D+00 -0.920792D-02  0.000000D+00  0.569126D-01  0.170977D+01
     11  0.000000D+00  0.000000D+00  0.385296D-01  0.000000D+00  0.622064D-02
     12  0.748720D+00  0.569126D-01  0.000000D+00 -0.293217D-01 -0.719013D+00
     13 -0.676887D+00  0.246129D-02 -0.503589D-02 -0.286331D-01 -0.296949D-01
     14 -0.181371D+00 -0.503589D-02  0.199061D-01 -0.767223D-02 -0.622064D-02
     15  0.113354D+00 -0.286331D-01 -0.767223D-02 -0.223674D-01 -0.849864D-02
               11            12            13            14            15 
     11 -0.975892D+00
     12  0.115545D-02 -0.733880D+00
     13 -0.622064D-02 -0.849864D-02  0.592935D+00
     14  0.152139D-01 -0.115545D-02  0.305142D+00 -0.487468D+00
     15 -0.115545D-02  0.144810D-01  0.714018D+00  0.190199D+00 -0.105468D+00
 Entering OneElI...
 OneElI was handed  2415918831 working-precision words.
 Calculate overlap and kinetic energy integrals
    NBasis =   8  MinDer = 2  MaxDer = 2
 Requested accuracy = 0.1000D-12
 PrsmSu:  NPrtUS=   4 ThrOK=T IAlg=1 NPAlg=1 LenDen=           0.
 Prism:   IPart=     0 DynPar=F LinDyn=F Incr=           1.
 PRISM was handed   603977560 working-precision words and    15 shell-pairs
 PRISM was handed   603977560 working-precision words and    15 shell-pairs
 PRISM was handed   603977560 working-precision words and    15 shell-pairs
 PRISM was handed   603977560 working-precision words and    15 shell-pairs
 IPart=  2 NShTot=           3 NBatch=           2 AvBLen=         1.5
 IPart=  1 NShTot=           4 NBatch=           2 AvBLen=         2.0
 IPart=  3 NShTot=           3 NBatch=           2 AvBLen=         1.5
 IPart=  0 NShTot=           5 NBatch=           3 AvBLen=         1.7
 PrSmSu:  NxtVal=              5.
 FFX after D2ST 
                1             2             3             4             5 
      1  0.000000D+00
      2  0.000000D+00  0.000000D+00
      3  0.000000D+00  0.000000D+00  0.000000D+00
      4  0.000000D+00  0.000000D+00  0.000000D+00  0.907478D+00
      5  0.000000D+00  0.000000D+00  0.000000D+00  0.461011D+00 -0.409542D+01
      6  0.000000D+00  0.000000D+00  0.000000D+00  0.275765D+00  0.276381D+00
      7  0.000000D+00  0.000000D+00  0.000000D+00  0.190554D+01  0.000000D+00
      8  0.000000D+00  0.000000D+00  0.000000D+00  0.000000D+00  0.190554D+01
      9  0.000000D+00  0.000000D+00  0.000000D+00 -0.613451D-01 -0.197149D-01
     10  0.000000D+00  0.000000D+00  0.000000D+00 -0.198152D+01 -0.260993D-01
     11  0.000000D+00  0.000000D+00  0.000000D+00 -0.260993D-01  0.144870D+01
     12  0.000000D+00  0.000000D+00  0.000000D+00  0.806725D+00  0.674973D-02
     13  0.000000D+00  0.000000D+00  0.000000D+00 -0.831497D+00 -0.434911D+00
     14  0.000000D+00  0.000000D+00  0.000000D+00 -0.434911D+00  0.741185D+00
     15  0.000000D+00  0.000000D+00  0.000000D+00 -0.102115D+01 -0.263416D+00
                6             7             8             9            10 
      6  0.110439D+01
      7 -0.613451D-01 -0.191093D+01
      8 -0.197149D-01  0.304181D-02 -0.194399D+01
      9 -0.259983D+01  0.517793D-01  0.243492D-01  0.261893D+01
     10  0.806725D+00  0.993227D-03  0.000000D+00  0.268610D-01  0.199708D+01
     11  0.674973D-02  0.000000D+00  0.235239D-01  0.000000D+00  0.300639D-01
     12  0.126085D+01  0.268610D-01  0.000000D+00 -0.849984D-02 -0.828170D+00
     13 -0.102115D+01  0.439181D-02 -0.304181D-02 -0.172952D-01 -0.165468D-01
     14 -0.263416D+00 -0.304181D-02  0.149289D-01 -0.463422D-02 -0.396464D-02
     15  0.234583D+00 -0.172952D-01 -0.463422D-02 -0.106054D-01 -0.541649D-02
               11            12            13            14            15 
     11 -0.148429D+01
     12 -0.601332D-02 -0.126396D+01
     13 -0.396464D-02 -0.541649D-02  0.843652D+00
     14  0.120752D-01 -0.736409D-03  0.441918D+00 -0.768189D+00
     15 -0.736409D-03  0.116081D-01  0.104386D+01  0.268787D+00 -0.235586D+00
 Entering OneElI...
 OneElI was handed  2415918831 working-precision words.
 Calculate potential energy integrals
    NBasis =   8  MinDer = 2  MaxDer = 2
 Requested accuracy = 0.1000D-12
 PrsmSu:  NPrtUS=   4 ThrOK=T IAlg=1 NPAlg=1 LenDen=           0.
 Prism:   IPart=     0 DynPar=F LinDyn=F Incr=           1.
 PRISM was handed   603977518 working-precision words and    15 shell-pairs
 PRISM was handed   603977518 working-precision words and    15 shell-pairs
 PRISM was handed   603977518 working-precision words and    15 shell-pairs
 PRISM was handed   603977518 working-precision words and    15 shell-pairs
 IPart=  0 NShTot=          20 NBatch=           5 AvBLen=         4.0
 IPart=  2 NShTot=          12 NBatch=           3 AvBLen=         4.0
 IPart=  3 NShTot=          12 NBatch=           3 AvBLen=         4.0
 IPart=  1 NShTot=          16 NBatch=           4 AvBLen=         4.0
 PrSmSu:  NxtVal=              5.
 FFX after D2V 
                1             2             3             4             5 
      1  0.000000D+00
      2  0.000000D+00  0.000000D+00
      3  0.000000D+00  0.000000D+00  0.000000D+00
      4  0.000000D+00  0.000000D+00  0.000000D+00  0.153065D+01
      5  0.000000D+00  0.000000D+00  0.000000D+00 -0.555539D+00  0.547415D+01
      6  0.000000D+00  0.000000D+00  0.000000D+00 -0.112680D+01 -0.299948D+00
      7  0.000000D+00  0.000000D+00  0.000000D+00 -0.222760D+01 -0.161849D-01
      8  0.000000D+00  0.000000D+00  0.000000D+00 -0.137061D-01 -0.211842D+01
      9  0.000000D+00  0.000000D+00  0.000000D+00  0.160583D+00  0.810969D-01
     10  0.000000D+00  0.000000D+00  0.000000D+00  0.147541D+00  0.110768D+00
     11  0.000000D+00  0.000000D+00  0.000000D+00  0.945266D-01 -0.194424D+01
     12  0.000000D+00  0.000000D+00  0.000000D+00 -0.247825D+00 -0.415567D-01
     13  0.000000D+00  0.000000D+00  0.000000D+00  0.549408D+00  0.460956D+00
     14  0.000000D+00  0.000000D+00  0.000000D+00  0.474719D+00 -0.141149D+01
     15  0.000000D+00  0.000000D+00  0.000000D+00  0.121404D+01  0.260408D+00
                6             7             8             9            10 
      6  0.376968D+01
      7  0.225658D+00  0.224434D+01
      8  0.602920D-01  0.230653D-01  0.199515D+01
      9 -0.912968D+00 -0.304959D+00 -0.512282D-01  0.107849D+01
     10 -0.325886D+00 -0.226125D-01 -0.247012D-02  0.241646D+00 -0.531408D-01
     11 -0.338664D-01  0.137511D-02  0.916346D-01 -0.265919D-02 -0.898121D-01
     12 -0.201075D+01  0.123803D+00  0.192509D-02 -0.969758D-01  0.120180D+00
     13  0.122702D+01  0.587182D-02 -0.688906D-02 -0.972697D-01 -0.717881D-01
     14  0.273523D+00 -0.825551D-02  0.316412D-01 -0.272095D-01 -0.184861D-01
     15 -0.845967D+00 -0.445030D-01 -0.109889D-01 -0.685483D-01 -0.359394D-01
               11            12            13            14            15 
     11  0.183389D+01
     12  0.374622D-01  0.208062D+01
     13 -0.608963D-02  0.384218D-02 -0.483492D+00
     14  0.187139D-01  0.216941D-02 -0.447977D+00  0.136113D+01
     15 -0.936593D-03  0.271069D-01 -0.113360D+01 -0.248483D+00  0.887408D+00
 Second derivatives from L701 IAtSt=0:
                1             2             3             4             5 
      1  0.000000D+00
      2  0.000000D+00  0.000000D+00
      3  0.000000D+00  0.000000D+00  0.000000D+00
      4  0.000000D+00  0.000000D+00  0.000000D+00  0.153065D+01
      5  0.000000D+00  0.000000D+00  0.000000D+00 -0.555539D+00  0.547415D+01
      6  0.000000D+00  0.000000D+00  0.000000D+00 -0.112680D+01 -0.299948D+00
      7  0.000000D+00  0.000000D+00  0.000000D+00 -0.222760D+01 -0.161849D-01
      8  0.000000D+00  0.000000D+00  0.000000D+00 -0.137061D-01 -0.211842D+01
      9  0.000000D+00  0.000000D+00  0.000000D+00  0.160583D+00  0.810969D-01
     10  0.000000D+00  0.000000D+00  0.000000D+00  0.147541D+00  0.110768D+00
     11  0.000000D+00  0.000000D+00  0.000000D+00  0.945266D-01 -0.194424D+01
     12  0.000000D+00  0.000000D+00  0.000000D+00 -0.247825D+00 -0.415567D-01
     13  0.000000D+00  0.000000D+00  0.000000D+00  0.549408D+00  0.460956D+00
     14  0.000000D+00  0.000000D+00  0.000000D+00  0.474719D+00 -0.141149D+01
     15  0.000000D+00  0.000000D+00  0.000000D+00  0.121404D+01  0.260408D+00
                6             7             8             9            10 
      6  0.376968D+01
      7  0.225658D+00  0.224434D+01
      8  0.602920D-01  0.230653D-01  0.199515D+01
      9 -0.912968D+00 -0.304959D+00 -0.512282D-01  0.107849D+01
     10 -0.325886D+00 -0.226125D-01 -0.247012D-02  0.241646D+00 -0.531408D-01
     11 -0.338664D-01  0.137511D-02  0.916346D-01 -0.265919D-02 -0.898121D-01
     12 -0.201075D+01  0.123803D+00  0.192509D-02 -0.969758D-01  0.120180D+00
     13  0.122702D+01  0.587182D-02 -0.688906D-02 -0.972697D-01 -0.717881D-01
     14  0.273523D+00 -0.825551D-02  0.316412D-01 -0.272095D-01 -0.184861D-01
     15 -0.845967D+00 -0.445030D-01 -0.109889D-01 -0.685483D-01 -0.359394D-01
               11            12            13            14            15 
     11  0.183389D+01
     12  0.374622D-01  0.208062D+01
     13 -0.608963D-02  0.384218D-02 -0.483492D+00
     14  0.187139D-01  0.216941D-02 -0.447977D+00  0.136113D+01
     15 -0.936593D-03  0.271069D-01 -0.113360D+01 -0.248483D+00  0.887408D+00
 Polarizability into L701:
                1             2             3 
      1  0.822660D+01
      2  0.104277D+01  0.715586D+00
      3  0.181717D+01  0.584010D+00  0.493232D+01
 Polarizability after L701:
                1             2             3 
      1  0.822660D+01
      2  0.104277D+01  0.715586D+00
      3  0.181717D+01  0.584010D+00  0.493232D+01
 Dipole Derivatives into L701:
                 1             2             3             4             5 
      1  -0.150271D+00  0.146292D+00  0.195290D-02  0.143402D-01 -0.627213D-01
      2   0.111711D+00 -0.111774D+01  0.886813D-01 -0.569953D-01  0.375913D+00
      3   0.294819D-02  0.118177D+00 -0.186594D+00 -0.409074D-01  0.170004D-01
                 6             7             8             9            10 
      1   0.250797D-01  0.255612D-01 -0.416049D-02 -0.523939D-01  0.110370D+00
      2  -0.804658D-02 -0.218143D-01  0.379488D+00 -0.540433D-01 -0.329016D-01
      3   0.881980D-03  0.413307D-01 -0.681302D-01  0.698230D-01 -0.337155D-02
                11            12 
      1  -0.794104D-01  0.253613D-01
      2   0.362335D+00 -0.265914D-01
      3  -0.670471D-01  0.115889D+00
 Dipole Derivatives after L701:
                 1             2             3             4             5 
      1  -0.150271D+00  0.146292D+00  0.195290D-02  0.143402D-01 -0.627213D-01
      2   0.111711D+00 -0.111774D+01  0.886813D-01 -0.569953D-01  0.375913D+00
      3   0.294819D-02  0.118177D+00 -0.186594D+00 -0.409074D-01  0.170004D-01
                 6             7             8             9            10 
      1   0.250797D-01  0.255612D-01 -0.416049D-02 -0.523939D-01  0.110370D+00
      2  -0.804658D-02 -0.218143D-01  0.379488D+00 -0.540433D-01 -0.329016D-01
      3   0.881980D-03  0.413307D-01 -0.681302D-01  0.698230D-01 -0.337155D-02
                11            12 
      1  -0.794104D-01  0.253613D-01
      2   0.362335D+00 -0.265914D-01
      3  -0.670471D-01  0.115889D+00
 Hessian into L701:
                1             2             3             4             5 
      1  0.639992D+00
      2  0.842482D-01 -0.782699D-01
      3  0.390947D-01  0.630523D-01  0.592070D+00
      4 -0.680815D-01 -0.721822D-02 -0.469745D-01  0.636901D-01
      5 -0.104585D-01 -0.142700D-01  0.625238D-02 -0.127269D-02  0.624891D-01
      6  0.445818D-01 -0.427912D-01 -0.412506D+00  0.251286D-02  0.105109D-01
      7 -0.350318D+00 -0.421082D-01  0.138876D+00 -0.978771D-02  0.476085D-02
      8 -0.612675D-02  0.309530D-01 -0.170277D-01 -0.127577D-02 -0.233062D-01
      9  0.147826D-01 -0.749790D-03 -0.739015D-01  0.739488D-01 -0.439648D-02
     10 -0.221593D+00 -0.349217D-01 -0.130996D+00  0.141791D-01  0.697030D-02
     11 -0.676629D-01  0.615869D-01 -0.522770D-01  0.976668D-02 -0.249129D-01
     12 -0.984590D-01 -0.195113D-01 -0.105663D+00 -0.294872D-01 -0.123668D-01
                6             7             8             9            10 
      6  0.370427D+00
      7 -0.123586D+00  0.296182D+00
      8  0.633220D-02  0.110891D-01  0.211196D-01
      9  0.687898D-02 -0.645646D-01 -0.101358D-02  0.604217D-01
     10  0.764917D-01  0.639231D-01 -0.368654D-02 -0.241668D-01  0.143491D+00
     11  0.259481D-01  0.262583D-01 -0.287665D-01  0.615985D-02  0.316379D-01
     12  0.351999D-01  0.492748D-01  0.117091D-01  0.660080D-02  0.786714D-01
               11            12 
     11 -0.790755D-02
     12  0.201690D-01  0.638621D-01
 Hessian after L701:
                1             2             3             4             5 
      1  0.217064D+01
      2 -0.471291D+00  0.539588D+01
      3 -0.108770D+01 -0.236896D+00  0.436175D+01
      4 -0.229568D+01 -0.234032D-01  0.178684D+00  0.230803D+01
      5 -0.241646D-01 -0.213269D+01  0.665444D-01  0.217926D-01  0.205763D+01
      6  0.205164D+00  0.383057D-01 -0.132547D+01 -0.302446D+00 -0.407174D-01
      7 -0.202776D+00  0.686601D-01 -0.187010D+00 -0.324002D-01  0.229072D-02
      8  0.883999D-01 -0.191329D+01 -0.508941D-01  0.993386D-04  0.683284D-01
      9 -0.233042D+00 -0.423065D-01 -0.208465D+01  0.197752D+00 -0.247138D-02
     10  0.327815D+00  0.426034D+00  0.109603D+01  0.200509D-01  0.812390D-04
     11  0.407056D+00 -0.134990D+01  0.221246D+00  0.151117D-02  0.672835D-02
     12  0.111558D+01  0.240897D+00 -0.951629D+00 -0.739902D-01 -0.233557D-01
                6             7             8             9            10 
      6  0.144892D+01
      7  0.118059D+00  0.243041D+00
      8  0.367301D-02 -0.787230D-01  0.185501D+01
      9 -0.900969D-01  0.556151D-01  0.364486D-01  0.214104D+01
     10 -0.207780D-01 -0.786500D-02 -0.977617D-02 -0.203246D-01 -0.340001D+00
     11 -0.126138D-02  0.777221D-02 -0.100526D-01  0.832926D-02 -0.416339D+00
     12 -0.333484D-01  0.133354D-01  0.107725D-01  0.337077D-01 -0.105493D+01
               11            12 
     11  0.135322D+01
     12 -0.228314D+00  0.951270D+00
 Leave Link  701 at Sun Jun 27 11:55:37 2021, MaxMem= 2415919104 cpu:       0.4
 Leave Link  702 at Sun Jun 27 11:55:37 2021, MaxMem= 2415919104 cpu:       0.1
 GetPCM: File not found, return IValue=0.
 ICntrl=    100127.
 Calling FoFJK, ICntrl=    100127 FMM=F ISym2X=0 I1Cent= 0 IOpClX= 0 NMat=1 NMatS=1 NMatT=0.
 FoFJK:  IHMeth= 1 ICntrl=100127 DoSepK=F KAlg= 1 I1Cent= 0 FoldK=F
 FoFCou: FMM=F IPFlag=           0 FMFlag=      100000 FMFlg1=         800
         NFxFlg=           0 DoJE=F BraDBF=F KetDBF=F FulRan=T
         Omega=  0.000000  0.000000  1.000000  0.000000  0.000000 ICntrl=  100127 IOpCl=  0
         NMat0=    1 NMatS0=    1 NMatT0=    0 NMatD0=    1 NMtDS0=    0 NMtDT0=    0
         I1Cent=           0 NGrid=           0.
 Symmetry not used in FoFCou.
 FoFCou:  KetSym=F NOpSet=  1 NOpAb=1 NOp=  1.
 FoFCou:  CnvScl= 1.00D+00 Thresh= 1.00D-10
 PrismS was handed  2415915595 working-precision words and    15 shell-pairs
 FoFCou: LinMIO=F DoNuc=F BraDBF=F KetDBF=F HaveP=T PDBF=F HaveZ=T HaveW=F
         NIJTC =       3 NIJTAt=       0 NIJTCD=       0 NIJTT =       3
         IJTBeg=       1 IJTEnd=       3 KLTBeg=       1 KLTEnd=       3
         IPTBeg=       1 IPTEnd=       3 IPTBCv=       1 IPTECv=       3
         IZTBeg=       1 IZTEnd=       3 IZTBCv=       1 IZTECv=       3
         IWTBeg=       4 IWTEnd=       3 IWTBCv=       4 IWTECv=       3
         INTBeg=       1 INTEnd=       0 IFTBCv=       1 IFTECv=       3
 NCel replicated for PrismC:     1
 CoulSu:  IncDef=  1024 NBBP=            120 NTPThr=   100 NPartT=    4 Incr=           1 LDynOK=F.
 CoulSu:  NPrtUS=   4 ThrOK=T IAlg=1 NPAlg=1 LenDen=           0.
 Enter PrismC: JobTyp=22 DoJE=F Cont=F.
 PrismC:  IPart=     0 DynPar=F LinDyn=F Incr=           1 UseFst=F UseS4=T.
 PrismC was handed   603977516 working-precision words and    15 shell-pairs
 Enter PrismC: JobTyp=22 DoJE=F Cont=F.
 Enter PrismC: JobTyp=22 DoJE=F Cont=F.
 Enter PrismC: JobTyp=22 DoJE=F Cont=F.
 PrismC was handed   603977516 working-precision words and    15 shell-pairs
 PrismC was handed   603977516 working-precision words and    15 shell-pairs
 PrismC was handed   603977516 working-precision words and    15 shell-pairs
 IPart=  0 NShTot=          34 NShNF=          34 NShFF=           0 NBatch=           6 AvBLen=         5.7
 IPart=  3 NShTot=          27 NShNF=          27 NShFF=           0 NBatch=           5 AvBLen=         5.4
 IPart=  1 NShTot=          29 NShNF=          29 NShFF=           0 NBatch=           5 AvBLen=         5.8
 IPart=  2 NShTot=          30 NShNF=          30 NShFF=           0 NBatch=           5 AvBLen=         6.0
 CoulSu:  NxtVal=              5.
 Force constants from FoFCou: 
                1             2             3             4             5 
      1  0.000000D+00
      2  0.000000D+00  0.000000D+00
      3  0.000000D+00  0.000000D+00  0.000000D+00
      4  0.000000D+00  0.000000D+00  0.000000D+00 -0.148174D+01
      5  0.000000D+00  0.000000D+00  0.000000D+00  0.520740D+00 -0.547807D+01
      6  0.000000D+00  0.000000D+00  0.000000D+00  0.978772D+00  0.280517D+00
      7  0.000000D+00  0.000000D+00  0.000000D+00  0.224213D+01  0.579538D-02
      8  0.000000D+00  0.000000D+00  0.000000D+00  0.364132D-02  0.221386D+01
      9  0.000000D+00  0.000000D+00  0.000000D+00 -0.181135D+00 -0.580987D-01
     10  0.000000D+00  0.000000D+00  0.000000D+00 -0.291386D+00 -0.871608D-01
     11  0.000000D+00  0.000000D+00  0.000000D+00 -0.855343D-01  0.193472D+01
     12  0.000000D+00  0.000000D+00  0.000000D+00  0.319060D+00  0.286529D-01
                6             7             8             9            10 
      6 -0.316637D+01
      7 -0.189221D+00 -0.226255D+01
      8 -0.555499D-01 -0.924566D-02 -0.212519D+01
      9  0.410760D+00  0.279333D+00  0.442850D-01 -0.527510D+00
     10  0.320743D+00  0.321380D-01  0.219575D-02 -0.130745D+00  0.247030D+00
     11  0.251217D-01 -0.682767D-03 -0.676998D-01  0.295955D-02  0.820721D-01
     12  0.194392D+01 -0.134115D+00 -0.811580D-03  0.820115D-01 -0.189189D+00
               11            12 
     11 -0.185552D+01
     12 -0.256688D-01 -0.200429D+01
 Hessian from J: 
                1             2             3             4             5 
      1  0.000000D+00
      2  0.000000D+00  0.000000D+00
      3  0.000000D+00  0.000000D+00  0.000000D+00
      4  0.000000D+00  0.000000D+00  0.000000D+00 -0.148174D+01
      5  0.000000D+00  0.000000D+00  0.000000D+00  0.520740D+00 -0.547807D+01
      6  0.000000D+00  0.000000D+00  0.000000D+00  0.978772D+00  0.280517D+00
      7  0.000000D+00  0.000000D+00  0.000000D+00  0.224213D+01  0.579538D-02
      8  0.000000D+00  0.000000D+00  0.000000D+00  0.364132D-02  0.221386D+01
      9  0.000000D+00  0.000000D+00  0.000000D+00 -0.181135D+00 -0.580987D-01
     10  0.000000D+00  0.000000D+00  0.000000D+00 -0.291386D+00 -0.871608D-01
     11  0.000000D+00  0.000000D+00  0.000000D+00 -0.855343D-01  0.193472D+01
     12  0.000000D+00  0.000000D+00  0.000000D+00  0.319060D+00  0.286529D-01
     13  0.000000D+00  0.000000D+00  0.000000D+00 -0.469007D+00 -0.439375D+00
     14  0.000000D+00  0.000000D+00  0.000000D+00 -0.438847D+00  0.132950D+01
     15  0.000000D+00  0.000000D+00  0.000000D+00 -0.111670D+01 -0.251071D+00
                6             7             8             9            10 
      6 -0.316637D+01
      7 -0.189221D+00 -0.226255D+01
      8 -0.555499D-01 -0.924566D-02 -0.212519D+01
      9  0.410760D+00  0.279333D+00  0.442850D-01 -0.527510D+00
     10  0.320743D+00  0.321380D-01  0.219575D-02 -0.130745D+00  0.247030D+00
     11  0.251217D-01 -0.682767D-03 -0.676998D-01  0.295955D-02  0.820721D-01
     12  0.194392D+01 -0.134115D+00 -0.811580D-03  0.820115D-01 -0.189189D+00
     13 -0.111029D+01 -0.117233D-01  0.340859D-02  0.325473D-01  0.122181D-01
     14 -0.250089D+00  0.413305D-02 -0.209690D-01  0.108541D-01  0.289293D-02
     15  0.811695D+00  0.440022D-01  0.120765D-01  0.347390D-01 -0.808762D-03
               11            12            13            14            15 
     11 -0.185552D+01
     12 -0.256688D-01 -0.200429D+01
     13  0.414494D-02  0.424380D-02  0.468512D+00
     14 -0.114969D-01 -0.217257D-02  0.431821D+00 -0.129703D+01
     15 -0.241254D-02 -0.216366D-01  0.107350D+01  0.241407D+00 -0.824798D+00
 Force constants from FoF: 
                1             2             3             4             5 
      1  0.000000D+00
      2  0.000000D+00  0.000000D+00
      3  0.000000D+00  0.000000D+00  0.000000D+00
      4  0.000000D+00  0.000000D+00  0.000000D+00 -0.148174D+01
      5  0.000000D+00  0.000000D+00  0.000000D+00  0.520740D+00 -0.547807D+01
      6  0.000000D+00  0.000000D+00  0.000000D+00  0.978772D+00  0.280517D+00
      7  0.000000D+00  0.000000D+00  0.000000D+00  0.224213D+01  0.579538D-02
      8  0.000000D+00  0.000000D+00  0.000000D+00  0.364132D-02  0.221386D+01
      9  0.000000D+00  0.000000D+00  0.000000D+00 -0.181135D+00 -0.580987D-01
     10  0.000000D+00  0.000000D+00  0.000000D+00 -0.291386D+00 -0.871608D-01
     11  0.000000D+00  0.000000D+00  0.000000D+00 -0.855343D-01  0.193472D+01
     12  0.000000D+00  0.000000D+00  0.000000D+00  0.319060D+00  0.286529D-01
     13  0.000000D+00  0.000000D+00  0.000000D+00 -0.469007D+00 -0.439375D+00
     14  0.000000D+00  0.000000D+00  0.000000D+00 -0.438847D+00  0.132950D+01
     15  0.000000D+00  0.000000D+00  0.000000D+00 -0.111670D+01 -0.251071D+00
                6             7             8             9            10 
      6 -0.316637D+01
      7 -0.189221D+00 -0.226255D+01
      8 -0.555499D-01 -0.924566D-02 -0.212519D+01
      9  0.410760D+00  0.279333D+00  0.442850D-01 -0.527510D+00
     10  0.320743D+00  0.321380D-01  0.219575D-02 -0.130745D+00  0.247030D+00
     11  0.251217D-01 -0.682767D-03 -0.676998D-01  0.295955D-02  0.820721D-01
     12  0.194392D+01 -0.134115D+00 -0.811580D-03  0.820115D-01 -0.189189D+00
     13 -0.111029D+01 -0.117233D-01  0.340859D-02  0.325473D-01  0.122181D-01
     14 -0.250089D+00  0.413305D-02 -0.209690D-01  0.108541D-01  0.289293D-02
     15  0.811695D+00  0.440022D-01  0.120765D-01  0.347390D-01 -0.808762D-03
               11            12            13            14            15 
     11 -0.185552D+01
     12 -0.256688D-01 -0.200429D+01
     13  0.414494D-02  0.424380D-02  0.468512D+00
     14 -0.114969D-01 -0.217257D-02  0.431821D+00 -0.129703D+01
     15 -0.241254D-02 -0.216366D-01  0.107350D+01  0.241407D+00 -0.824798D+00
 Second derivatives from L703 IAtSt=0:
                1             2             3             4             5 
      1  0.000000D+00
      2  0.000000D+00  0.000000D+00
      3  0.000000D+00  0.000000D+00  0.000000D+00
      4  0.000000D+00  0.000000D+00  0.000000D+00 -0.148174D+01
      5  0.000000D+00  0.000000D+00  0.000000D+00  0.520740D+00 -0.547807D+01
      6  0.000000D+00  0.000000D+00  0.000000D+00  0.978772D+00  0.280517D+00
      7  0.000000D+00  0.000000D+00  0.000000D+00  0.224213D+01  0.579538D-02
      8  0.000000D+00  0.000000D+00  0.000000D+00  0.364132D-02  0.221386D+01
      9  0.000000D+00  0.000000D+00  0.000000D+00 -0.181135D+00 -0.580987D-01
     10  0.000000D+00  0.000000D+00  0.000000D+00 -0.291386D+00 -0.871608D-01
     11  0.000000D+00  0.000000D+00  0.000000D+00 -0.855343D-01  0.193472D+01
     12  0.000000D+00  0.000000D+00  0.000000D+00  0.319060D+00  0.286529D-01
     13  0.000000D+00  0.000000D+00  0.000000D+00 -0.469007D+00 -0.439375D+00
     14  0.000000D+00  0.000000D+00  0.000000D+00 -0.438847D+00  0.132950D+01
     15  0.000000D+00  0.000000D+00  0.000000D+00 -0.111670D+01 -0.251071D+00
                6             7             8             9            10 
      6 -0.316637D+01
      7 -0.189221D+00 -0.226255D+01
      8 -0.555499D-01 -0.924566D-02 -0.212519D+01
      9  0.410760D+00  0.279333D+00  0.442850D-01 -0.527510D+00
     10  0.320743D+00  0.321380D-01  0.219575D-02 -0.130745D+00  0.247030D+00
     11  0.251217D-01 -0.682767D-03 -0.676998D-01  0.295955D-02  0.820721D-01
     12  0.194392D+01 -0.134115D+00 -0.811580D-03  0.820115D-01 -0.189189D+00
     13 -0.111029D+01 -0.117233D-01  0.340859D-02  0.325473D-01  0.122181D-01
     14 -0.250089D+00  0.413305D-02 -0.209690D-01  0.108541D-01  0.289293D-02
     15  0.811695D+00  0.440022D-01  0.120765D-01  0.347390D-01 -0.808762D-03
               11            12            13            14            15 
     11 -0.185552D+01
     12 -0.256688D-01 -0.200429D+01
     13  0.414494D-02  0.424380D-02  0.468512D+00
     14 -0.114969D-01 -0.217257D-02  0.431821D+00 -0.129703D+01
     15 -0.241254D-02 -0.216366D-01  0.107350D+01  0.241407D+00 -0.824798D+00
 Polarizability into L703:
                1             2             3 
      1  0.822660D+01
      2  0.104277D+01  0.715586D+00
      3  0.181717D+01  0.584010D+00  0.493232D+01
 Polarizability after L703:
                1             2             3 
      1  0.822660D+01
      2  0.104277D+01  0.715586D+00
      3  0.181717D+01  0.584010D+00  0.493232D+01
 Dipole Derivatives into L703:
                 1             2             3             4             5 
      1  -0.150271D+00  0.146292D+00  0.195290D-02  0.143402D-01 -0.627213D-01
      2   0.111711D+00 -0.111774D+01  0.886813D-01 -0.569953D-01  0.375913D+00
      3   0.294819D-02  0.118177D+00 -0.186594D+00 -0.409074D-01  0.170004D-01
                 6             7             8             9            10 
      1   0.250797D-01  0.255612D-01 -0.416049D-02 -0.523939D-01  0.110370D+00
      2  -0.804658D-02 -0.218143D-01  0.379488D+00 -0.540433D-01 -0.329016D-01
      3   0.881980D-03  0.413307D-01 -0.681302D-01  0.698230D-01 -0.337155D-02
                11            12 
      1  -0.794104D-01  0.253613D-01
      2   0.362335D+00 -0.265914D-01
      3  -0.670471D-01  0.115889D+00
 Dipole Derivatives after L703:
                 1             2             3             4             5 
      1  -0.150271D+00  0.146292D+00  0.195290D-02  0.143402D-01 -0.627213D-01
      2   0.111711D+00 -0.111774D+01  0.886813D-01 -0.569953D-01  0.375913D+00
      3   0.294819D-02  0.118177D+00 -0.186594D+00 -0.409074D-01  0.170004D-01
                 6             7             8             9            10 
      1   0.250797D-01  0.255612D-01 -0.416049D-02 -0.523939D-01  0.110370D+00
      2  -0.804658D-02 -0.218143D-01  0.379488D+00 -0.540433D-01 -0.329016D-01
      3   0.881980D-03  0.413307D-01 -0.681302D-01  0.698230D-01 -0.337155D-02
                11            12 
      1  -0.794104D-01  0.253613D-01
      2   0.362335D+00 -0.265914D-01
      3  -0.670471D-01  0.115889D+00
 Hessian into L703:
                1             2             3             4             5 
      1  0.217064D+01
      2 -0.471291D+00  0.539588D+01
      3 -0.108770D+01 -0.236896D+00  0.436175D+01
      4 -0.229568D+01 -0.234032D-01  0.178684D+00  0.230803D+01
      5 -0.241646D-01 -0.213269D+01  0.665444D-01  0.217926D-01  0.205763D+01
      6  0.205164D+00  0.383057D-01 -0.132547D+01 -0.302446D+00 -0.407174D-01
      7 -0.202776D+00  0.686601D-01 -0.187010D+00 -0.324002D-01  0.229072D-02
      8  0.883999D-01 -0.191329D+01 -0.508941D-01  0.993386D-04  0.683284D-01
      9 -0.233042D+00 -0.423065D-01 -0.208465D+01  0.197752D+00 -0.247138D-02
     10  0.327815D+00  0.426034D+00  0.109603D+01  0.200509D-01  0.812390D-04
     11  0.407056D+00 -0.134990D+01  0.221246D+00  0.151117D-02  0.672835D-02
     12  0.111558D+01  0.240897D+00 -0.951629D+00 -0.739902D-01 -0.233557D-01
                6             7             8             9            10 
      6  0.144892D+01
      7  0.118059D+00  0.243041D+00
      8  0.367301D-02 -0.787230D-01  0.185501D+01
      9 -0.900969D-01  0.556151D-01  0.364486D-01  0.214104D+01
     10 -0.207780D-01 -0.786500D-02 -0.977617D-02 -0.203246D-01 -0.340001D+00
     11 -0.126138D-02  0.777221D-02 -0.100526D-01  0.832926D-02 -0.416339D+00
     12 -0.333484D-01  0.133354D-01  0.107725D-01  0.337077D-01 -0.105493D+01
               11            12 
     11  0.135322D+01
     12 -0.228314D+00  0.951270D+00
 Hessian after L703:
                1             2             3             4             5 
      1  0.688903D+00
      2  0.494491D-01 -0.821903D-01
      3 -0.108930D+00  0.436212D-01  0.119538D+01
      4 -0.535497D-01 -0.176078D-01 -0.105368D-01  0.454843D-01
      5 -0.205233D-01  0.811640D-01  0.109945D-01  0.125470D-01 -0.675519D-01
      6  0.240288D-01 -0.197929D-01 -0.914714D+00 -0.231123D-01  0.356764D-02
      7 -0.494162D+00 -0.185007D-01  0.133733D+00 -0.262191D-03  0.448647D-02
      8  0.286555D-02  0.214268D-01 -0.257723D-01 -0.583428D-03  0.628629D-03
      9  0.860174D-01 -0.136536D-01 -0.140733D+00  0.636370D-01 -0.328296D-02
     10 -0.141191D+00 -0.133406D-01 -0.142657D-01  0.832764D-02  0.348983D-02
     11 -0.317913D-01 -0.204005D-01 -0.288434D-01  0.564422D-02 -0.142407D-01
     12 -0.111595D-02 -0.101747D-01 -0.139934D+00 -0.299880D-01 -0.112791D-01
                6             7             8             9            10 
      6  0.921408D+00
      7 -0.126858D-01  0.490071D+00
      8  0.663256D-02  0.334910D-02 -0.505906D-03
      9 -0.808538D-02 -0.133574D+00  0.107799D-01  0.136747D+00
     10  0.117693D-01  0.435306D-02 -0.563122D-02 -0.160808D-01  0.128511D+00
     11  0.959274D-02  0.106651D-01 -0.215495D-01  0.615669D-02  0.154820D-01
     12  0.139060D-02  0.125266D-01  0.835992D-02  0.120710D-01  0.185773D-01
               11            12 
     11  0.561906D-01
     12  0.130939D-01  0.126473D+00
 Leave Link  703 at Sun Jun 27 11:55:37 2021, MaxMem= 2415919104 cpu:       0.5
 GetPCM: File not found, return IValue=0.
 FrcOut:
 IF    =    33 IFX   =    45 IFXYZ =    57
 IFFX  =    69 IFFFX =   147 IFLen =    12
 IFFLen=    78 IFFFLn=     0 IEDerv=   147
 LEDerv=   629 IFroze=   780 ICStrt=   977
 Hessian entering l716: 
                1             2             3             4             5 
      1  0.688903D+00
      2  0.494491D-01 -0.821903D-01
      3 -0.108930D+00  0.436212D-01  0.119538D+01
      4 -0.535497D-01 -0.176078D-01 -0.105368D-01  0.454843D-01
      5 -0.205233D-01  0.811640D-01  0.109945D-01  0.125470D-01 -0.675519D-01
      6  0.240288D-01 -0.197929D-01 -0.914714D+00 -0.231123D-01  0.356764D-02
      7 -0.494162D+00 -0.185007D-01  0.133733D+00 -0.262191D-03  0.448647D-02
      8  0.286555D-02  0.214268D-01 -0.257723D-01 -0.583428D-03  0.628629D-03
      9  0.860174D-01 -0.136536D-01 -0.140733D+00  0.636370D-01 -0.328296D-02
     10 -0.141191D+00 -0.133406D-01 -0.142657D-01  0.832764D-02  0.348983D-02
     11 -0.317913D-01 -0.204005D-01 -0.288434D-01  0.564422D-02 -0.142407D-01
     12 -0.111595D-02 -0.101747D-01 -0.139934D+00 -0.299880D-01 -0.112791D-01
                6             7             8             9            10 
      6  0.921408D+00
      7 -0.126858D-01  0.490071D+00
      8  0.663256D-02  0.334910D-02 -0.505906D-03
      9 -0.808538D-02 -0.133574D+00  0.107799D-01  0.136747D+00
     10  0.117693D-01  0.435306D-02 -0.563122D-02 -0.160808D-01  0.128511D+00
     11  0.959274D-02  0.106651D-01 -0.215495D-01  0.615669D-02  0.154820D-01
     12  0.139060D-02  0.125266D-01  0.835992D-02  0.120710D-01  0.185773D-01
               11            12 
     11  0.561906D-01
     12  0.130939D-01  0.126473D+00
 DipoleDeriv   =-1.50271443D-01 1.11711237D-01 2.94819451D-03
                 1.46292238D-01-1.11773526D+00 1.18176829D-01
                 1.95290206D-03 8.86813489D-02-1.86593947D-01
                 1.43402307D-02-5.69953191D-02-4.09073818D-02
                -6.27213420D-02 3.75912627D-01 1.70004063D-02
                 2.50796915D-02-8.04657541D-03 8.81979804D-04
                 2.55612020D-02-2.18143435D-02 4.13307348D-02
                -4.16049287D-03 3.79487565D-01-6.81301796D-02
                -5.23938676D-02-5.40433320D-02 6.98230330D-02
                 1.10370011D-01-3.29015742D-02-3.37154755D-03
                -7.94104028D-02 3.62335067D-01-6.70470560D-02
                 2.53612740D-02-2.65914415D-02 1.15888935D-01
 Quadrupole    = 1.01784301D+00-1.28437249D+00 2.66529479D-01
                 3.26642373D-01 4.36133772D-01 2.07953408D-01
 VibFq2-Diag1:  N=     12 IV=           5 MDV=  2415917391 NE2=   201326448
 Full mass-weighted force constant matrix:
 Low frequencies ----1429.8249 -587.6515 -358.4143   -0.0007   -0.0007   -0.0001
 Low frequencies --- 1261.9541 1859.6934 1945.7230
 OrtVCM:  Ph=1 IPass= 1 DotMx1= 0.00D+00
 OrtVCM:  IS=    1 I=    1 IndO=    1 Dot= 1.00D+00 DotN= 1.00D+00 ElMax1= 9.07D-01 ElMax1N= 9.07D-01
 OrtVCM:  Ph=2 NNew=    0 IAdd=    2 IPass= 1 DotMx2= 0.00D+00
 OrtVCM:  IS=    1 I=    2 IndO=    2 Dot= 1.00D+00 DotN= 1.00D+00 ElMax1= 9.07D-01 ElMax1N= 9.07D-01
 OrtVCM:  Ph=2 NNew=    0 IAdd=    3 IPass= 1 DotMx2= 0.00D+00
 OrtVCM:  IS=    1 I=    3 IndO=    3 Dot= 1.00D+00 DotN= 1.00D+00 ElMax1= 9.07D-01 ElMax1N= 9.07D-01
 OrtVCM:  Ph=2 NNew=    0 IAdd=    4 IPass= 1 DotMx2= 4.86D-17
 OrtVCM:  IS=    1 I=    4 IndO=    4 Dot= 1.00D+00 DotN= 1.00D+00 ElMax1= 7.69D-01 ElMax1N= 7.69D-01
 OrtVCM:  Ph=2 NNew=    0 IAdd=    5 IPass= 1 DotMx2= 3.55D-16
 OrtVCM:  IS=    1 I=    5 IndO=    5 Dot= 1.00D+00 DotN= 1.00D+00 ElMax1= 7.90D-01 ElMax1N= 7.90D-01
 OrtVCM:  Ph=2 NNew=    0 IAdd=    6 IPass= 1 DotMx2= 1.53D-16
 OrtVCM:  IS=    1 I=    6 IndO=    6 Dot= 1.00D+00 DotN= 1.00D+00 ElMax1= 5.63D-01 ElMax1N= 5.63D-01
 OrtVCM:  Ph=1 IPass= 1 DotMx1= 9.07D-01
 OrtVCM:  Ph=1 IPass= 2 DotMx1= 4.86D-16
 OrtVCM:  IS=    1 I=    1 IndO=    7 Dot= 1.76D-01 DotN= 1.76D-01 ElMax1= 2.22D-01 ElMax1N= 2.22D-01
 OrtVCM:  Ph=2 NNew=    0 IAdd=    2 IPass= 1 DotMx2= 6.85D-04
 OrtVCM:  Ph=2 NNew=    0 IAdd=    2 IPass= 2 DotMx2= 6.07D-18
 OrtVCM:  IS=    1 I=    2 IndO=    8 Dot= 1.77D-01 DotN= 1.77D-01 ElMax1= 2.27D-01 ElMax1N= 2.27D-01
 OrtVCM:  Ph=2 NNew=    0 IAdd=    3 IPass= 1 DotMx2= 1.32D-03
 OrtVCM:  Ph=2 NNew=    0 IAdd=    3 IPass= 2 DotMx2= 2.28D-18
 OrtVCM:  IS=    1 I=    3 IndO=    9 Dot= 1.75D-01 DotN= 1.75D-01 ElMax1= 2.21D-01 ElMax1N= 2.21D-01
 OrtVCM:  Ph=2 NNew=    0 IAdd=    4 IPass= 1 DotMx2= 5.17D-01
 OrtVCM:  Ph=2 NNew=    0 IAdd=    4 IPass= 2 DotMx2= 9.76D-18
 OrtVCM:  IS=    1 I=    4 IndO=   10 Dot= 4.13D-01 DotN= 4.13D-01 ElMax1= 4.13D-01 ElMax1N= 4.13D-01
 OrtVCM:  Ph=2 NNew=    0 IAdd=    5 IPass= 1 DotMx2= 5.07D-01
 OrtVCM:  Ph=2 NNew=    0 IAdd=    5 IPass= 2 DotMx2= 2.78D-17
 OrtVCM:  IS=    1 I=    5 IndO=    0 Dot= 6.43D-03 DotN= 6.43D-03 ElMax1= 6.51D-02 ElMax1N= 6.51D-02
 OrtVCM:  Ph=2 NNew=    0 IAdd=    6 IPass= 1 DotMx2= 5.30D-01
 OrtVCM:  Ph=2 NNew=    0 IAdd=    6 IPass= 2 DotMx2= 1.39D-16
 OrtVCM:  IS=    1 I=    6 IndO=   11 Dot= 6.60D-01 DotN= 6.60D-01 ElMax1= 6.60D-01 ElMax1N= 6.60D-01
 SchOr2:  IPass= 1 Test2A= 1.00D-01 IOff=     0 NDo=     6 NNew=     5
 OrtVCM:  Ph=1 IPass= 1 DotMx1= 5.31D-01
 OrtVCM:  Ph=1 IPass= 2 DotMx1= 6.94D-17
 OrtVCM:  IS=    1 I=    1 IndO=   12 Dot= 4.75D-01 DotN= 4.75D-01 ElMax1= 4.75D-01 ElMax1N= 4.75D-01
 SchOr2:  IPass= 1 Test2A= 1.00D-01 IOff=     6 NDo=     1 NNew=     1
 VibFq2-Diag2:  N=      6 IV=           5 MDV=  2415917391 NE2=   402652897

 Eigenvalues of Mass-weighted Force Constants in hartree/(bohr**2*amu):
    -0.96974678D+03     0.16803876D+04     0.19317870D+04     0.20596439D+04
     0.38748221D+04     0.50957776D+04
 ******    1 imaginary frequencies (negative Signs) ****** 
 Dipole derivatives wrt mode   1:  3.05336D+00 -2.23324D+01  2.73631D+00
 Vibrational polarizability contributions from mode   1       0.2667918      14.2721082       0.2142634
 Vibrational hyperpolarizability contributions from mode   1       0.0000000       0.0000000       0.0000000
 Dipole derivatives wrt mode   2: -1.55275D+00  5.64975D-01  2.96609D+00
 Vibrational polarizability contributions from mode   2       0.0229781       0.0030421       0.0838463
 Vibrational hyperpolarizability contributions from mode   2       0.0000000       0.0000000       0.0000000
 Dipole derivatives wrt mode   3: -2.34249D+00 -4.66942D-01  1.18140D+00
 Vibrational polarizability contributions from mode   3       0.0395702       0.0015723       0.0100649
 Vibrational hyperpolarizability contributions from mode   3       0.0000000       0.0000000       0.0000000
 Dipole derivatives wrt mode   4: -1.78238D+00 -3.60116D-01 -2.61411D+00
 Vibrational polarizability contributions from mode   4       0.0201536       0.0008227       0.0433506
 Vibrational hyperpolarizability contributions from mode   4       0.0000000       0.0000000       0.0000000
 Dipole derivatives wrt mode   5: -1.66974D+00 -8.04426D-02 -4.66891D-01
 Vibrational polarizability contributions from mode   5       0.0049972       0.0000116       0.0003907
 Vibrational hyperpolarizability contributions from mode   5       0.0000000       0.0000000       0.0000000
 Dipole derivatives wrt mode   6:  6.81945D-01 -9.47275D-02  4.35853D-01
 Vibrational polarizability contributions from mode   6       0.0004820       0.0000093       0.0001969
 Vibrational hyperpolarizability contributions from mode   6       0.0000000       0.0000000       0.0000000
 Diagonal vibrational polarizability:
        0.3549729      14.2775662       0.3521128
 NorSel:  MapVib=      1      2      3      4      5      6
 Harmonic frequencies (cm**-1), IR intensities (KM/Mole), Raman scattering
 activities (A**4/AMU), depolarization ratios for plane and unpolarized
 incident light, reduced masses (AMU), force constants (mDyne/A),
 and normal coordinates:
                           1         2         3         4         5
                           A         A         A         A         A
       Frequencies ---  -969.7468 1680.3876 1931.7870 2059.6439 3874.8221
    Reduced masses ---     1.2059    1.0997    1.0365    1.1060    1.0727
   Force constants ---     0.6681    1.8295    2.2790    2.7643    9.4897
    IR Intensities ---   515.5476   11.5279    7.1010   10.1401    3.0125
 Coord Atom Element:
   1     1     7         -0.01105   0.07433  -0.01550   0.05533   0.06871
   2     1     7          0.12248   0.00319  -0.00627   0.01410   0.00209
   3     1     7         -0.01078  -0.03914  -0.04390   0.06554  -0.01644
   1     2     1          0.05771  -0.70364   0.46709  -0.10212   0.04101
   2     2     1         -0.56019  -0.13008   0.01547   0.04250  -0.00962
   3     2     1          0.00525  -0.05795  -0.01904   0.08360  -0.06983
   1     3     1          0.03548   0.11404   0.25949  -0.04062  -0.94410
   2     3     1         -0.58746   0.10377   0.10584  -0.03588  -0.00286
   3     3     1          0.07644   0.10599   0.66099  -0.35021   0.30662
   1     4     1          0.06031  -0.44322  -0.51124  -0.62601  -0.05163
   2     4     1         -0.55417  -0.01802  -0.03423  -0.20258  -0.01661
   3     4     1          0.06803   0.49575  -0.03199  -0.64398  -0.00840
                           6
                           A
       Frequencies ---  5095.7776
    Reduced masses ---     1.0781
   Force constants ---    16.4947
    IR Intensities ---     0.6640
 Coord Atom Element:
   1     1     7          0.00434
   2     1     7         -0.00156
   3     1     7         -0.07341
   1     2     1         -0.02047
   2     2     1          0.00371
   3     2     1          0.99540
   1     3     1         -0.05151
   2     3     1          0.00755
   3     3     1          0.00598
   1     4     1          0.01164
   2     4     1          0.01045
   3     4     1          0.01861
 Harmonic frequencies (cm**-1), IR intensities (KM/Mole), Raman scattering
 activities (A**4/AMU), depolarization ratios for plane and unpolarized
 incident light, reduced masses (AMU), force constants (mDyne/A),
 and normal coordinates:
                     1                      2                      3
                     A                      A                      A
 Frequencies --  -969.7468              1680.3876              1931.7870
 Red. masses --     1.2059                 1.0997                 1.0365
 Frc consts  --     0.6681                 1.8295                 2.2790
 IR Inten    --   515.5476                11.5279                 7.1010
  Atom  AN      X      Y      Z        X      Y      Z        X      Y      Z
     1   7    -0.01   0.12  -0.01     0.07   0.00  -0.04    -0.02  -0.01  -0.04
     2   1     0.06  -0.56   0.01    -0.70  -0.13  -0.06     0.47   0.02  -0.02
     3   1     0.04  -0.59   0.08     0.11   0.10   0.11     0.26   0.11   0.66
     4   1     0.06  -0.55   0.07    -0.44  -0.02   0.50    -0.51  -0.03  -0.03
                     4                      5                      6
                     A                      A                      A
 Frequencies --  2059.6439              3874.8221              5095.7776
 Red. masses --     1.1060                 1.0727                 1.0781
 Frc consts  --     2.7643                 9.4897                16.4947
 IR Inten    --    10.1401                 3.0125                 0.6640
  Atom  AN      X      Y      Z        X      Y      Z        X      Y      Z
     1   7     0.06   0.01   0.07     0.07   0.00  -0.02     0.00   0.00  -0.07
     2   1    -0.10   0.04   0.08     0.04  -0.01  -0.07    -0.02   0.00   1.00
     3   1    -0.04  -0.04  -0.35    -0.94   0.00   0.31    -0.05   0.01   0.01
     4   1    -0.63  -0.20  -0.64    -0.05  -0.02  -0.01     0.01   0.01   0.02

 -------------------
 - Thermochemistry -
 -------------------
 Temperature  2500.000 Kelvin.  Pressure   1.00000 Atm.
 Atom     1 has atomic number  7 and mass  14.00307
 Atom     2 has atomic number  1 and mass   1.00783
 Atom     3 has atomic number  1 and mass   1.00783
 Atom     4 has atomic number  1 and mass   1.00783
 Molecular mass:    17.02655 amu.
 Principal axes and moments of inertia in atomic units:
                           1         2         3
     Eigenvalues --     4.33849   8.41533  12.60467
           X            0.90171  -0.41570  -0.11880
           Y            0.14787   0.03832   0.98826
           Z            0.40627   0.90869  -0.09603
 This molecule is an asymmetric top.
 Rotational symmetry number  1.
 Rotational temperatures (Kelvin)     19.96405    10.29238     6.87157
 Rotational constants (GHZ):         415.98378   214.45873   143.18037
    1 imaginary frequencies ignored.
 Zero-point vibrational energy      87581.1 (Joules/Mol)
                                   20.93239 (Kcal/Mol)
 Warning -- explicit consideration of   5 degrees of freedom as
           vibrations may cause significant error
 Vibrational temperatures:   2417.70  2779.41  2963.36  5575.00  7331.68
          (Kelvin)
 
 Zero-point correction=                           0.033358 (Hartree/Particle)
 Thermal correction to Energy=                    0.073685
 Thermal correction to Enthalpy=                  0.081602
 Thermal correction to Gibbs Free Energy=        -0.206054
 Sum of electronic and zero-point Energies=            -55.341958
 Sum of electronic and thermal Energies=               -55.301631
 Sum of electronic and thermal Enthalpies=             -55.293714
 Sum of electronic and thermal Free Energies=          -55.581369
 
                     E (Thermal)             CV                S
                      KCal/Mol        Cal/Mol-Kelvin    Cal/Mol-Kelvin
 Total                   46.238             13.715             72.203
 Electronic               0.000              0.000              0.000
 Translational            7.452              2.981             45.005
 Rotational               7.452              2.981             20.234
 Vibrational             31.334              7.753              6.964
 Vibration     1          5.349              1.839              2.129
 Vibration     2          5.469              1.795              1.876
 Vibration     3          5.537              1.770              1.762
 Vibration     4          6.874              1.334              0.760
 Vibration     5          8.104              1.015              0.437
                       Q            Log10(Q)             Ln(Q)
 Total Bot       0.201005D+12         11.303208         26.026598
 Total V=0       0.135855D+14         13.133077         30.240028
 Vib (Bot)       0.606352D-01         -1.217275         -2.802879
 Vib (Bot)    1  0.994818D+00         -0.002256         -0.005195
 Vib (Bot)    2  0.854766D+00         -0.068153         -0.156927
 Vib (Bot)    3  0.796198D+00         -0.098979         -0.227908
 Vib (Bot)    4  0.367424D+00         -0.434832         -1.001239
 Vib (Bot)    5  0.243750D+00         -0.613055         -1.411611
 Vib (V=0)       0.409821D+01          0.612594          1.410550
 Vib (V=0)    1  0.161340D+01          0.207743          0.478345
 Vib (V=0)    2  0.149027D+01          0.173264          0.398954
 Vib (V=0)    3  0.144018D+01          0.158416          0.364765
 Vib (V=0)    4  0.112048D+01          0.049406          0.113761
 Vib (V=0)    5  0.105625D+01          0.023767          0.054725
 Electronic      0.100000D+01          0.000000          0.000000
 Translational   0.562222D+09          8.749908         20.147408
 Rotational      0.589624D+04          3.770575          8.682069

 ----------------------------------------------------------------------
 Conversion from  Hartrees  Bohrs Rad  
             to   attoJoule Angs. Rad  
 Scaling Factors
  Distances:   0.5291772  Angles:   1.0000000  Energies:      4.3597439


 CutOffs FOR PRESENT CALCULATION
 Tolerance on coordinates:                    .52918D-05 Angs.
 Tolerance on angles:                         .10000D-04 Rad  
 Tolerance on energies:                       .19619D-07 attoJoule
 Tolerance on 1st derivs.:                    .37074D-02
 Tolerance on 2nd derivs.:                    .37074D-04
 Tolerance on 3rd derivs.:                    .37074D-04
 Tolerance on 4th derivs.:                    .37074D-04
 Tolerance on Frequencies:                    .10000D+01 cm-1
 Tolerance on Coriolis Couplings:             .10000D-02
 Tolerance on Force Constants for Resonances: .10000D+02 cm-1
 Tolerance on Frequency Diffs for Resonances: .10000D+02 cm-1
 Tolerance on Inertia Moments:                .10000D-03 amu Angs.**2
 DinFIO: LStep=     103 LStep0=     323 MxStep=    12 LnDina=        2795

    6 Variables with Step = 0.189D-01

 Dump of IrwDin (720)
    6 Variables with Step = 0.189D-01
  Normal Modes 
                 1             2             3             4             5 
      1   0.100608D-01  0.418331D-02 -0.663420D-01 -0.526104D-01 -0.152232D-01
      2  -0.111539D+00 -0.150505D-02 -0.202104D-02 -0.134104D-01 -0.615542D-02
      3   0.981270D-02 -0.706998D-01  0.158705D-01 -0.623167D-01 -0.431200D-01
      4  -0.525568D-01 -0.197188D-01 -0.395937D-01  0.971059D-01  0.458795D+00
      5   0.510133D+00  0.357127D-02  0.928621D-02 -0.404162D-01  0.151925D-01
      6  -0.478216D-02  0.958652D+00  0.674180D-01 -0.794964D-01 -0.187020D-01
      7  -0.323121D-01 -0.496113D-01  0.911523D+00  0.386285D-01  0.254881D+00
      8   0.534969D+00  0.727495D-02  0.275914D-02  0.341211D-01  0.103959D+00
      9  -0.696090D-01  0.575572D-02 -0.296036D+00  0.333005D+00  0.649252D+00
     10  -0.549190D-01  0.112058D-01  0.498488D-01  0.595253D+00 -0.502159D+00
     11   0.504655D+00  0.100654D-01  0.160356D-01  0.192624D+00 -0.336257D-01
     12  -0.619500D-01  0.179197D-01  0.810776D-02  0.612341D+00 -0.314254D-01
                 6             7             8             9            10 
      1  -0.708854D-01  0.000000D+00  0.000000D+00  0.000000D+00  0.000000D+00
      2  -0.304219D-02  0.000000D+00  0.000000D+00  0.000000D+00  0.000000D+00
      3   0.373218D-01  0.000000D+00  0.000000D+00  0.000000D+00  0.000000D+00
      4   0.670994D+00  0.000000D+00  0.000000D+00  0.000000D+00  0.000000D+00
      5   0.124045D+00  0.000000D+00  0.000000D+00  0.000000D+00  0.000000D+00
      6   0.552608D-01  0.000000D+00  0.000000D+00  0.000000D+00  0.000000D+00
      7  -0.108748D+00  0.000000D+00  0.000000D+00  0.000000D+00  0.000000D+00
      8  -0.989567D-01  0.000000D+00  0.000000D+00  0.000000D+00  0.000000D+00
      9  -0.101074D+00  0.000000D+00  0.000000D+00  0.000000D+00  0.000000D+00
     10   0.422662D+00  0.000000D+00  0.000000D+00  0.000000D+00  0.000000D+00
     11   0.171805D-01  0.000000D+00  0.000000D+00  0.000000D+00  0.000000D+00
     12  -0.472749D+00  0.000000D+00  0.000000D+00  0.000000D+00  0.000000D+00
                11            12 
      1   0.000000D+00  0.000000D+00
      2   0.000000D+00  0.000000D+00
      3   0.000000D+00  0.000000D+00
      4   0.000000D+00  0.000000D+00
      5   0.000000D+00  0.000000D+00
      6   0.000000D+00  0.000000D+00
      7   0.000000D+00  0.000000D+00
      8   0.000000D+00  0.000000D+00
      9   0.000000D+00  0.000000D+00
     10   0.000000D+00  0.000000D+00
     11   0.000000D+00  0.000000D+00
     12   0.000000D+00  0.000000D+00
 For frequence  -969.74678
                          + Displ.                          
 ---------------------------------------------------------------------
 Center     Atomic                     Coordinates (Angstroms)
 Number     Number                        X           Y           Z
 ---------------------------------------------------------------------
      1          7                    0.000101   -0.001115    0.000098
      2          1                   -0.000526    0.005101    0.939952
      3          1                    1.006551    0.005350   -0.261091
      4          1                   -1.037663   -0.272847   -0.640673
 ---------------------------------------------------------------------
                          - Displ.                          
 ---------------------------------------------------------------------
 Center     Atomic                     Coordinates (Angstroms)
 Number     Number                        X           Y           Z
 ---------------------------------------------------------------------
      1          7                   -0.000101    0.001115   -0.000098
      2          1                    0.000526   -0.005101    0.940048
      3          1                    1.007197   -0.005350   -0.259699
      4          1                   -1.036565   -0.282941   -0.639435
 ---------------------------------------------------------------------
 For frequence  5095.77762
                          + Displ.                          
 ---------------------------------------------------------------------
 Center     Atomic                     Coordinates (Angstroms)
 Number     Number                        X           Y           Z
 ---------------------------------------------------------------------
      1          7                    0.000042   -0.000015   -0.000707
      2          1                   -0.000197    0.000036    0.949587
      3          1                    1.006378    0.000073   -0.260337
      4          1                   -1.037002   -0.277793   -0.639875
 ---------------------------------------------------------------------
                          - Displ.                          
 ---------------------------------------------------------------------
 Center     Atomic                     Coordinates (Angstroms)
 Number     Number                        X           Y           Z
 ---------------------------------------------------------------------
      1          7                   -0.000042    0.000015    0.000707
      2          1                    0.000197   -0.000036    0.930413
      3          1                    1.007370   -0.000073   -0.260453
      4          1                   -1.037226   -0.277995   -0.640233
 ---------------------------------------------------------------------
 For frequence  3874.82209
                          + Displ.                          
 ---------------------------------------------------------------------
 Center     Atomic                     Coordinates (Angstroms)
 Number     Number                        X           Y           Z
 ---------------------------------------------------------------------
      1          7                   -0.000663   -0.000020    0.000159
      2          1                   -0.000396    0.000093    0.940674
      3          1                    1.015989    0.000028   -0.263355
      4          1                   -1.036616   -0.277734   -0.639973
 ---------------------------------------------------------------------
                          - Displ.                          
 ---------------------------------------------------------------------
 Center     Atomic                     Coordinates (Angstroms)
 Number     Number                        X           Y           Z
 ---------------------------------------------------------------------
      1          7                    0.000663    0.000020   -0.000159
      2          1                    0.000396   -0.000093    0.939326
      3          1                    0.997759   -0.000028   -0.257435
      4          1                   -1.037612   -0.278054   -0.640135
 ---------------------------------------------------------------------
 For frequence  2059.64393
                          + Displ.                          
 ---------------------------------------------------------------------
 Center     Atomic                     Coordinates (Angstroms)
 Number     Number                        X           Y           Z
 ---------------------------------------------------------------------
      1          7                   -0.000526   -0.000134   -0.000623
      2          1                    0.000971   -0.000404    0.939205
      3          1                    1.007260    0.000341   -0.257065
      4          1                   -1.031161   -0.275968   -0.633931
 ---------------------------------------------------------------------
                          - Displ.                          
 ---------------------------------------------------------------------
 Center     Atomic                     Coordinates (Angstroms)
 Number     Number                        X           Y           Z
 ---------------------------------------------------------------------
      1          7                    0.000526    0.000134    0.000623
      2          1                   -0.000971    0.000404    0.940795
      3          1                    1.006488   -0.000341   -0.263725
      4          1                   -1.043067   -0.279820   -0.646177
 ---------------------------------------------------------------------
 For frequence  1931.78698
                          + Displ.                          
 ---------------------------------------------------------------------
 Center     Atomic                     Coordinates (Angstroms)
 Number     Number                        X           Y           Z
 ---------------------------------------------------------------------
      1          7                   -0.000152   -0.000062   -0.000431
      2          1                    0.004588    0.000152    0.939813
      3          1                    1.009423    0.001040   -0.253902
      4          1                   -1.042136   -0.278230   -0.640368
 ---------------------------------------------------------------------
                          - Displ.                          
 ---------------------------------------------------------------------
 Center     Atomic                     Coordinates (Angstroms)
 Number     Number                        X           Y           Z
 ---------------------------------------------------------------------
      1          7                    0.000152    0.000062    0.000431
      2          1                   -0.004588   -0.000152    0.940187
      3          1                    1.004325   -0.001040   -0.266888
      4          1                   -1.032092   -0.277558   -0.639740
 ---------------------------------------------------------------------
 For frequence  1680.38764
                          + Displ.                          
 ---------------------------------------------------------------------
 Center     Atomic                     Coordinates (Angstroms)
 Number     Number                        X           Y           Z
 ---------------------------------------------------------------------
      1          7                   -0.000709   -0.000030    0.000373
      2          1                    0.006710    0.001240    0.940553
      3          1                    1.005787   -0.000990   -0.261406
      4          1                   -1.032887   -0.277722   -0.644781
 ---------------------------------------------------------------------
                          - Displ.                          
 ---------------------------------------------------------------------
 Center     Atomic                     Coordinates (Angstroms)
 Number     Number                        X           Y           Z
 ---------------------------------------------------------------------
      1          7                    0.000709    0.000030   -0.000373
      2          1                   -0.006710   -0.001240    0.939447
      3          1                    1.007961    0.000990   -0.259384
      4          1                   -1.041341   -0.278066   -0.635327
 ---------------------------------------------------------------------
 Z-matrix is all fixed cartesians, so copy forces.
 Force constants in Cartesian coordinates: 
                1             2             3             4             5 
      1  0.688903D+00
      2  0.494491D-01 -0.821903D-01
      3 -0.108930D+00  0.436212D-01  0.119538D+01
      4 -0.535497D-01 -0.176078D-01 -0.105368D-01  0.454843D-01
      5 -0.205233D-01  0.811640D-01  0.109945D-01  0.125470D-01 -0.675519D-01
      6  0.240288D-01 -0.197929D-01 -0.914714D+00 -0.231123D-01  0.356764D-02
      7 -0.494162D+00 -0.185007D-01  0.133733D+00 -0.262191D-03  0.448647D-02
      8  0.286555D-02  0.214268D-01 -0.257723D-01 -0.583428D-03  0.628629D-03
      9  0.860174D-01 -0.136536D-01 -0.140733D+00  0.636370D-01 -0.328296D-02
     10 -0.141191D+00 -0.133406D-01 -0.142657D-01  0.832764D-02  0.348983D-02
     11 -0.317913D-01 -0.204005D-01 -0.288434D-01  0.564422D-02 -0.142407D-01
     12 -0.111595D-02 -0.101747D-01 -0.139934D+00 -0.299880D-01 -0.112791D-01
                6             7             8             9            10 
      6  0.921408D+00
      7 -0.126858D-01  0.490071D+00
      8  0.663256D-02  0.334910D-02 -0.505906D-03
      9 -0.808538D-02 -0.133574D+00  0.107799D-01  0.136747D+00
     10  0.117693D-01  0.435306D-02 -0.563122D-02 -0.160808D-01  0.128511D+00
     11  0.959274D-02  0.106651D-01 -0.215495D-01  0.615669D-02  0.154820D-01
     12  0.139060D-02  0.125266D-01  0.835992D-02  0.120710D-01  0.185773D-01
               11            12 
     11  0.561906D-01
     12  0.130939D-01  0.126473D+00
 Final forces over variables, Energy=-5.53753154D+01:
 -7.37454142D-02-3.09385508D-02-3.83142254D-02 1.42998190D-01
 -6.38682984D-03-7.79877700D-03-1.22438321D-02 2.64294389D-02
 -1.52963205D-01 1.09003377D-01-3.18204490D-02 7.57802772D-02
 Leave Link  716 at Sun Jun 27 11:55:38 2021, MaxMem= 2415919104 cpu:       0.4
 NDeriv=  12 NFrqRd=  0 LFDDif=       1
 NDeriv=  12 NFrqRd=  0 LFDDif=       1
 At 1st pt Frequency-dependent properties file   721 does not exist.
 D2Numr ... symmetry will not be used.
     8 basis functions,    24 primitive gaussians,     8 cartesian basis functions
     5 alpha electrons        5 beta electrons
       nuclear repulsion energy        11.3349025271 Hartrees.
 NAtoms=    4 NActive=    4 NUniq=    4 SFac= 1.00D+00 NAtFMM=   60 NAOKFM=F Big=F
 Initial guess read from the read-write file.
 B after Tr=     0.000000    0.000000    0.000000
         Rot=    1.000000    0.000000    0.000000    0.000000 Ang=   0.00 deg.
 SCF Done:  E(RHF) =  -55.3751949944     A.U. after    8 cycles
             Convg  =    0.2872D-08             -V/T =  2.0065
 NROrb=      8 NOA=     5 NOB=     5 NVA=     3 NVB=     3
 Symmetrizing basis deriv contribution to polar:
 IMax=3 JMax=2 DiffMx= 0.00D+00
 Calling FoFCou, ICntrl=  3107 FMM=F I1Cent=   0 AccDes= 0.00D+00.
 End of G2Drv Frequency-dependent properties file   721 does not exist.
 End of G2Drv Frequency-dependent properties file   722 does not exist.
          IDoAtm=1111
 End of Minotr Frequency-dependent properties file   721 does not exist.
 End of Minotr Frequency-dependent properties file   722 does not exist.

 **********************************************************************

            Population analysis using the SCF density.

 **********************************************************************

 Alpha  occ. eigenvalues --  -15.25532  -1.02492  -0.54604  -0.52471  -0.30077
 Alpha virt. eigenvalues --    0.42914   0.73823   0.83562
          Condensed to atoms (all electrons):
 Mulliken atomic charges:
              1
     1  N   -0.492941
     2  H    0.174847
     3  H    0.162584
     4  H    0.155510
 Sum of Mulliken atomic charges =   0.00000
 Mulliken charges with hydrogens summed into heavy atoms:
              1
     1  N    0.000000
 Sum of Mulliken charges with hydrogens summed into heavy atoms =   0.00000
 APT atomic charges:
              1
     1  N   -0.487623
     2  H    0.131012
     3  H    0.159139
     4  H    0.197472
 Sum of APT charges=   0.00000
 APT Atomic charges with hydrogens summed into heavy atoms:
              1
     1  N    0.000000
     2  H    0.000000
     3  H    0.000000
     4  H    0.000000
 Sum of APT charges=   0.00000
 Electronic spatial extent (au):  <R**2>=             26.1538
 Charge=              0.0000 electrons
 Dipole moment (field-independent basis, Debye):
    X=             -0.0183    Y=             -0.4883    Z=              0.0690  Tot=              0.4935
  Exact polarizability:   8.215   1.044   0.718   1.813   0.586   4.926
 Approx polarizability:   6.423   0.855   0.467   1.464   0.486   3.791
 GetPCM: File not found, return IValue=0.
 LT D matrices:
                1             2             3             4             5 
      1  0.207491D+01
      2 -0.283166D+00  0.118861D+01
      3  0.642507D-02 -0.524472D-01  0.674107D+00
      4 -0.308557D-01  0.159332D+00 -0.152118D+00  0.194760D+01
      5  0.567840D-02 -0.699783D-01 -0.148363D-02 -0.119949D+00  0.707972D+00
      6 -0.844791D-01  0.185445D+00 -0.694088D-01 -0.197034D-01  0.582403D+00
      7 -0.836113D-01  0.234369D+00  0.523578D+00 -0.382879D-01 -0.254961D+00
      8 -0.901059D-01  0.330810D+00 -0.440448D+00 -0.174305D+00 -0.329319D+00
                6             7             8 
      6  0.535176D+00
      7 -0.211617D+00  0.551106D+00
      8 -0.179672D+00 -0.168949D+00  0.570278D+00
 PT:          0:
                1             2             3             4             5 
      1  0.207491D+01
      2 -0.283166D+00  0.118861D+01
      3  0.642507D-02 -0.524472D-01  0.674107D+00
      4 -0.308557D-01  0.159332D+00 -0.152118D+00  0.194760D+01
      5  0.567840D-02 -0.699783D-01 -0.148363D-02 -0.119949D+00  0.707972D+00
      6 -0.844791D-01  0.185445D+00 -0.694088D-01 -0.197034D-01  0.582403D+00
      7 -0.836113D-01  0.234369D+00  0.523578D+00 -0.382879D-01 -0.254961D+00
      8 -0.901059D-01  0.330810D+00 -0.440448D+00 -0.174305D+00 -0.329319D+00
                6             7             8 
      6  0.535176D+00
      7 -0.211617D+00  0.551106D+00
      8 -0.179672D+00 -0.168949D+00  0.570278D+00
 WT:          0:
                1             2             3             4             5 
      1  0.302154D+02
      2  0.594074D+00  0.119676D+01
      3  0.390520D-01  0.192087D-01  0.356388D+00
      4 -0.221102D-01  0.223733D-01 -0.332910D-01  0.588431D+00
      5  0.575328D-01  0.288790D-01 -0.737939D-02 -0.277786D-01  0.385064D+00
      6 -0.314863D+00  0.248295D+00 -0.327288D-01 -0.467617D-02  0.330277D+00
      7 -0.266420D+00  0.247343D+00  0.288547D+00 -0.957480D-02 -0.130487D+00
      8 -0.194821D+00  0.255072D+00 -0.227664D+00 -0.714387D-01 -0.166042D+00
                6             7             8 
      6  0.335320D+00
      7 -0.813106D-01  0.327971D+00
      8 -0.701746D-01 -0.691472D-01  0.311133D+00
 FFX after V2NN 
                1             2             3             4             5 
      1  0.000000D+00
      2  0.000000D+00  0.000000D+00
      3  0.000000D+00  0.000000D+00  0.000000D+00
      4  0.000000D+00  0.000000D+00  0.000000D+00  0.989663D+00
      5  0.000000D+00  0.000000D+00  0.000000D+00  0.304706D+00 -0.262799D+01
      6  0.000000D+00  0.000000D+00  0.000000D+00  0.381025D-02  0.198335D+00
      7  0.000000D+00  0.000000D+00  0.000000D+00  0.124937D+01  0.165170D-04
      8  0.000000D+00  0.000000D+00  0.000000D+00  0.165170D-04  0.124921D+01
      9  0.000000D+00  0.000000D+00  0.000000D+00  0.249706D-02 -0.247910D-01
     10  0.000000D+00  0.000000D+00  0.000000D+00 -0.167056D+01 -0.166579D-01
     11  0.000000D+00  0.000000D+00  0.000000D+00 -0.166579D-01  0.922550D+00
     12  0.000000D+00  0.000000D+00  0.000000D+00  0.672979D+00  0.432298D-02
     13  0.000000D+00  0.000000D+00  0.000000D+00 -0.568475D+00 -0.288065D+00
     14  0.000000D+00  0.000000D+00  0.000000D+00 -0.288065D+00  0.456237D+00
     15  0.000000D+00  0.000000D+00  0.000000D+00 -0.679286D+00 -0.177867D+00
                6             7             8             9            10 
      6  0.163833D+01
      7  0.249706D-02 -0.124266D+01
      8 -0.247910D-01  0.502573D-02 -0.130758D+01
      9 -0.249858D+01 -0.307309D-01  0.324436D-01  0.255024D+01
     10  0.672979D+00 -0.917791D-02 -0.117539D-04  0.568410D-01  0.170942D+01
     11  0.432298D-02 -0.117539D-04  0.384834D-01  0.140177D-04  0.228941D-01
     12  0.748008D+00  0.568410D-01  0.140177D-04 -0.293055D-01 -0.721327D+00
     13 -0.679286D+00  0.246823D-02 -0.503050D-02 -0.286072D-01 -0.296838D-01
     14 -0.177867D+00 -0.503050D-02  0.198909D-01 -0.766661D-02 -0.622445D-02
     15  0.112237D+00 -0.286072D-01 -0.766661D-02 -0.223591D-01 -0.849287D-02
               11            12            13            14            15 
     11 -0.976240D+00
     12 -0.318120D-02 -0.733180D+00
     13 -0.622445D-02 -0.849287D-02  0.595690D+00
     14  0.152069D-01 -0.115579D-02  0.299320D+00 -0.491335D+00
     15 -0.115579D-02  0.144769D-01  0.716386D+00  0.186689D+00 -0.104355D+00
 Entering OneElI...
 OneElI was handed  2415918831 working-precision words.
 Calculate overlap and kinetic energy integrals
    NBasis =   8  MinDer = 2  MaxDer = 2
 Requested accuracy = 0.1000D-12
 PrsmSu:  NPrtUS=   4 ThrOK=T IAlg=1 NPAlg=1 LenDen=           0.
 Prism:   IPart=     0 DynPar=F LinDyn=F Incr=           1.
 PRISM was handed   603977560 working-precision words and    15 shell-pairs
 PRISM was handed   603977560 working-precision words and    15 shell-pairs
 PRISM was handed   603977560 working-precision words and    15 shell-pairs
 PRISM was handed   603977560 working-precision words and    15 shell-pairs
 IPart=  0 NShTot=           5 NBatch=           3 AvBLen=         1.7
 IPart=  2 NShTot=           3 NBatch=           2 AvBLen=         1.5
 IPart=  1 NShTot=           4 NBatch=           2 AvBLen=         2.0
 IPart=  3 NShTot=           3 NBatch=           2 AvBLen=         1.5
 PrSmSu:  NxtVal=              5.
 FFX after D2ST 
                1             2             3             4             5 
      1  0.000000D+00
      2  0.000000D+00  0.000000D+00
      3  0.000000D+00  0.000000D+00  0.000000D+00
      4  0.000000D+00  0.000000D+00  0.000000D+00  0.909420D+00
      5  0.000000D+00  0.000000D+00  0.000000D+00  0.474026D+00 -0.410087D+01
      6  0.000000D+00  0.000000D+00  0.000000D+00  0.273063D+00  0.295689D+00
      7  0.000000D+00  0.000000D+00  0.000000D+00  0.190607D+01 -0.373803D-03
      8  0.000000D+00  0.000000D+00  0.000000D+00 -0.373803D-03  0.190554D+01
      9  0.000000D+00  0.000000D+00  0.000000D+00 -0.584222D-01 -0.487728D-01
     10  0.000000D+00  0.000000D+00  0.000000D+00 -0.198060D+01 -0.469567D-01
     11  0.000000D+00  0.000000D+00  0.000000D+00 -0.469567D-01  0.144881D+01
[...]
  3    5  5      11.248        138.473             1009.218

        3             5  5
    0.38324D+04
    0.34618D+02    0.39026D+04

 Vibrational Energies (cm-1)
 Mode(Quanta)   E(depert.)  E(after diag.)
  3(1)           3832.382     3818.180
  5(2)           3902.563     3916.766

 ZPEharm    =  7321.20913 cm-1  =  20.932 Kcal/mol  =  87.581 Kj/mol
 ZPEfund    =  7107.91783 cm-1  =  20.323 Kcal/mol  =  85.030 KJ/mol
 ZPEaver    =  7214.56348 cm-1  =  20.627 Kcal/mol  =  86.305 KJ/mol
 -1/4sumXii =    43.71964 cm-1  =   0.125 Kcal/mol  =   0.523 KJ/mol
 x0         =   -51.72636 cm-1  =  -0.148 Kcal/mol  =  -0.619 KJ/mol
 ZPEtot     =  7206.55676 cm-1  =  20.605 Kcal/mol  =  86.210 KJ/mol
 ZPEtot/ZPEharm = 0.98434   ZPEfund/ZPEharm= 0.97087

 Vibrational Energies and Rotational Constants (cm-1)
 Mode(Quanta)     E(harm)     E(anharm)    Aa(z)       Ba(x)       Ca(y)
 Equilibrium Geometry                    13.875615    7.153996    4.775671
 Ground State    7321.209     7206.557   14.275747    7.159562    4.621044
 Fundamental Bands (DE w.r.t. Ground State)
  1(1)           -969.747    -1119.967   14.791622    7.329051    4.605397
  2(1)           5095.778     4984.193   14.090772    7.139747    4.596786
  3(1)           3874.822     3818.180   14.253022    7.047392    4.586976
  4(1)           2059.644     1824.155   14.289259    6.970099    4.604270
  5(1)           1931.787     1959.086   14.514101    7.184756    4.533713
  6(1)           1680.388     1630.222   14.515971    7.297458    4.489867
 Overtones (DE w.r.t. Ground State)
  1(2)          -1939.494    -2346.887   15.307497    7.498540    4.589749
  2(2)          10191.555     9884.371   13.905796    7.119932    4.572528
  3(2)           7749.644     7567.948   14.230297    6.935222    4.552907
  4(2)           4119.288     3508.609   14.302771    6.780636    4.587497
  5(2)           3863.574     3916.766   14.752455    7.209950    4.446383
  6(2)           3360.775     3246.826   14.756194    7.435354    4.358690
 Combination Bands (DE w.r.t. Ground State)
  2(1)   1(1)    4126.031     3843.990   14.606646    7.309236    4.581139
  3(1)   1(1)    2905.075     2683.445   14.768897    7.216881    4.571328
  3(1)   2(1)    8970.600     8807.801   14.068047    7.027577    4.562718
  4(1)   1(1)    1089.897      669.580   14.805134    7.139588    4.588623
  4(1)   2(1)    7155.422     6799.966   14.104284    6.950284    4.580012
  4(1)   3(1)    5934.466     5622.824   14.266534    6.857929    4.570202
  5(1)   1(1)     962.040      831.798   15.029976    7.354245    4.518066
  5(1)   2(1)    7027.565     6934.129   14.329126    7.164941    4.509455
  5(1)   3(1)    5806.609     5974.944   14.491376    7.072586    4.499645
  5(1)   4(1)    3991.431     3718.120   14.527613    6.995293    4.516940
  6(1)   1(1)     710.641      514.854   15.031845    7.466947    4.474220
  6(1)   2(1)    6776.165     6605.815   14.330995    7.277643    4.465609
  6(1)   3(1)    5555.210     5459.333   14.493245    7.185288    4.455799
  6(1)   4(1)    3740.032     3404.626   14.529483    7.107995    4.473094
  6(1)   5(1)    3612.175     3573.236   14.754325    7.322652    4.402537

 ZPE(harm) = 0.87581D+02 kJ/mol        ZPE(anh)= 0.86210D+02 kJ/mol

 Input values of T(K) and P(atm):2500.00   1.00
                    Harmonic value     SPT anharmonic value
 Qvib               0.60635D-01          0.70466D-01
 QZvib              0.40982D+01          0.44586D+01
 Energy             0.19346D+03          0.19338D+03         kJ/mol
 Enthalpy           0.21425D+03          0.21417D+03         kJ/mol
 Entropy            0.31041D+03          0.31163D+03         J/(mol K)
 Sp.Heat(V)         0.57384D+02          0.57763D+02         J/(mol K)
 Sp.Heat(P)         0.65698D+02          0.66078D+02         J/(mol K)

 T =  298.15 K;  P =   1.00 atm
                    Harmonic value     SPT anharmonic value
 Qvib               0.45359D-15          0.78890D-15
 QZvib              0.10004D+01          0.10006D+01
 Energy             0.95027D+02          0.93659D+02         kJ/mol
 Enthalpy           0.97506D+02          0.96138D+02         kJ/mol
 Entropy            0.21059D+03          0.21060D+03         J/(mol K)
 Sp.Heat(V)         0.25212D+02          0.25296D+02         J/(mol K)
 Sp.Heat(P)         0.33527D+02          0.33610D+02         J/(mol K)

 T =  500.00 K;  P =   1.00 atm
                    Harmonic value     SPT anharmonic value
 Qvib               0.71938D-09          0.10041D-08
 QZvib              0.10146D+01          0.10182D+01
 Energy             0.10037D+03          0.99062D+02         kJ/mol
 Enthalpy           0.10453D+03          0.10322D+03         kJ/mol
 Entropy            0.22850D+03          0.22866D+03         J/(mol K)
 Sp.Heat(V)         0.28309D+02          0.28836D+02         J/(mol K)
 Sp.Heat(P)         0.36623D+02          0.37150D+02         J/(mol K)

 T = 1000.00 K;  P =   1.00 atm
                    Harmonic value     SPT anharmonic value
 Qvib               0.33011D-04          0.40015D-04
 QZvib              0.12398D+01          0.12743D+01
 Energy             0.11758D+03          0.11665D+03         kJ/mol
 Enthalpy           0.12589D+03          0.12496D+03         kJ/mol
 Entropy            0.25764D+03          0.25831D+03         J/(mol K)
 Sp.Heat(V)         0.40169D+02          0.40956D+02         J/(mol K)
 Sp.Heat(P)         0.48484D+02          0.49271D+02         J/(mol K)

 T = 1500.00 K;  P =   1.00 atm
                    Harmonic value     SPT anharmonic value
 Qvib               0.15840D-02          0.18615D-02
 QZvib              0.17763D+01          0.18702D+01
 Energy             0.13989D+03          0.13931D+03         kJ/mol
 Enthalpy           0.15236D+03          0.15178D+03         kJ/mol
 Entropy            0.27899D+03          0.27995D+03         J/(mol K)
 Sp.Heat(V)         0.48484D+02          0.49118D+02         J/(mol K)
 Sp.Heat(P)         0.56798D+02          0.57432D+02         J/(mol K)

 T = 2000.00 K;  P =   1.00 atm
                    Harmonic value     SPT anharmonic value
 Qvib               0.13865D-01          0.16150D-01
 QZvib              0.26870D+01          0.28820D+01
 Energy             0.16558D+03          0.16528D+03         kJ/mol
 Enthalpy           0.18221D+03          0.18191D+03         kJ/mol
 Entropy            0.29613D+03          0.29725D+03         J/(mol K)
 Sp.Heat(V)         0.53886D+02          0.54377D+02         J/(mol K)
 Sp.Heat(P)         0.62201D+02          0.62692D+02         J/(mol K)
 

***************** cut here for Dina input *****************
 InDerAU

              1    1           -0.035588
              2    2            0.982681
              3    3            0.568192
              4    4            0.160537
              5    5            0.141224
              6    6            0.106859
         1    1    1           -0.044688
         2    1    1            0.168810
         2    2    1            0.035282
         2    2    2           -2.926722
         3    1    1            0.088777
         3    2    1            0.001664
         3    2    2           -0.147520
         3    3    1            0.026688
         3    3    2            0.109578
         3    3    3           -1.664766
         4    1    1            0.004992
         4    2    1           -0.011888
         4    2    2            0.035732
         4    3    1            0.003133
         4    3    2            0.033282
         4    3    3            0.021895
         4    4    1            0.014224
         4    4    2            0.029983
         4    4    3            0.077938
         4    4    4            0.445001
         5    1    1            0.006739
         5    2    1           -0.006541
         5    2    2           -0.093141
         5    3    1            0.007321
         5    3    2            0.047102
         5    3    3           -0.141594
         5    4    1           -0.013791
         5    4    2            0.006723
         5    4    3            0.021223
         5    4    4           -0.183954
         5    5    1            0.001324
         5    5    2            0.069744
         5    5    3            0.057429
         5    5    4            0.113010
         5    5    5            0.000435
         6    1    1            0.005391
         6    2    1            0.021250
         6    2    2           -0.054641
         6    3    1           -0.010482
         6    3    2            0.026388
         6    3    3            0.007065
         6    4    1            0.003829
         6    4    2            0.059923
         6    4    3           -0.014149
         6    4    4            0.064132
         6    5    1           -0.002465
         6    5    2            0.141147
         6    5    3           -0.039261
         6    5    4           -0.006317
         6    5    5            0.063665
         6    6    1           -0.007243
         6    6    2            0.248227
         6    6    3            0.009399
         6    6    4            0.044870
         6    6    5           -0.020941
         6    6    6           -0.014835
    1    1    1    1            0.283406
    2    2    1    1           -0.831723
    2    2    2    1           -0.168422
    2    2    2    2            9.233182
    3    3    1    1           -0.424020
    3    3    2    1            0.010201
    3    3    2    2            0.036756
    3    3    3    1           -0.117651
    3    3    3    2           -0.321675
    3    3    3    3            4.730262
    4    4    1    1           -0.067157
    4    4    2    1            0.006424
    4    4    2    2           -0.070219
    4    4    3    1            0.010972
    4    4    3    2            0.031814
    4    4    3    3           -0.166266
    4    4    4    1            0.043286
    4    4    4    2            0.045951
    4    4    4    3            0.124765
    4    4    4    4            0.978686
    5    5    1    1            0.004762
    5    5    2    1            0.014879
    5    5    2    2           -0.480686
    5    5    3    1            0.015866
    5    5    3    2            0.062394
    5    5    3    3           -0.478946
    5    5    4    1            0.008549
    5    5    4    2            0.000544
    5    5    4    3           -0.058736
    5    5    4    4            0.211104
    5    5    5    1            0.008905
    5    5    5    2           -0.063361
    5    5    5    3           -0.180110
    5    5    5    4           -0.046944
    5    5    5    5            0.082576
    6    6    1    1            0.035563
    6    6    2    1            0.017153
    6    6    2    2           -1.205457
    6    6    3    1            0.006829
    6    6    3    2           -0.038874
    6    6    3    3           -0.055916
    6    6    4    1           -0.008755
    6    6    4    2           -0.026478
    6    6    4    3           -0.012914
    6    6    4    4           -0.027885
    6    6    5    1            0.010021
    6    6    5    2           -0.063134
    6    6    5    3            0.012123
    6    6    5    4            0.042954
    6    6    5    5            0.077350
    6    6    6    1            0.007679
    6    6    6    2           -0.036920
    6    6    6    3           -0.010136
    6    6    6    4           -0.019240
    6    6    6    5            0.161517
    6    6    6    6            0.163214
         x    2    1           -0.616872
         x    3    1            0.144095
         x    3    2            0.013458
         x    4    1           -0.563509
         x    4    2           -0.031776
         x    4    3           -0.026174
         x    5    1           -0.397911
         x    5    2            0.015485
         x    5    3           -0.033970
         x    5    4           -0.006793
         x    6    1            0.329672
         x    6    2            0.128719
         x    6    3            0.045877
         x    6    4            0.074618
         x    6    5           -0.068856
         y    2    1           -0.065368
         y    3    1            0.083841
         y    3    2           -0.019131
         y    4    1           -0.001734
         y    4    2           -0.168684
         y    4    3            0.409499
         y    5    1           -0.033656
         y    5    2           -0.485718
         y    5    3            0.688022
         y    5    4            0.284192
         y    6    1            0.063522
         y    6    2           -0.724660
         y    6    3           -0.219216
         y    6    4           -0.542067
         y    6    5            0.285275
         z    2    1           -0.036525
         z    3    1            0.601822
         z    3    2            0.008704
         z    4    1            0.467192
         z    4    2            0.007293
         z    4    3           -0.042969
         z    5    1            0.144871
         z    5    2            0.004987
         z    5    3           -0.101607
         z    5    4           -0.094445
         z    6    1            0.616752
         z    6    2            0.004901
         z    6    3            0.106982
         z    6    4            0.043457
         z    6    5           -0.033224
 
***************** cut here for DiNa input *****************

 Z-matrix is all fixed cartesians, so copy forces.
 Force constants in Cartesian coordinates: 
                1             2             3             4             5 
      1  0.688903D+00
      2  0.494491D-01 -0.821903D-01
      3 -0.108930D+00  0.436212D-01  0.119538D+01
      4 -0.535497D-01 -0.176078D-01 -0.105368D-01  0.454843D-01
      5 -0.205233D-01  0.811640D-01  0.109945D-01  0.125470D-01 -0.675519D-01
      6  0.240288D-01 -0.197929D-01 -0.914714D+00 -0.231123D-01  0.356764D-02
      7 -0.494162D+00 -0.185007D-01  0.133733D+00 -0.262191D-03  0.448647D-02
      8  0.286555D-02  0.214268D-01 -0.257723D-01 -0.583428D-03  0.628629D-03
      9  0.860174D-01 -0.136536D-01 -0.140733D+00  0.636370D-01 -0.328296D-02
     10 -0.141191D+00 -0.133406D-01 -0.142657D-01  0.832764D-02  0.348983D-02
     11 -0.317913D-01 -0.204005D-01 -0.288434D-01  0.564422D-02 -0.142407D-01
     12 -0.111595D-02 -0.101747D-01 -0.139934D+00 -0.299880D-01 -0.112791D-01
                6             7             8             9            10 
      6  0.921408D+00
      7 -0.126858D-01  0.490071D+00
      8  0.663256D-02  0.334910D-02 -0.505906D-03
      9 -0.808538D-02 -0.133574D+00  0.107799D-01  0.136747D+00
     10  0.117693D-01  0.435306D-02 -0.563122D-02 -0.160808D-01  0.128511D+00
     11  0.959274D-02  0.106651D-01 -0.215495D-01  0.615669D-02  0.154820D-01
     12  0.139060D-02  0.125266D-01  0.835992D-02  0.120710D-01  0.185773D-01
               11            12 
     11  0.561906D-01
     12  0.130939D-01  0.126473D+00
 Final forces over variables, Energy=-5.53753154D+01:
 -7.37454142D-02-3.09385508D-02-3.83142254D-02 1.42998190D-01
 -6.38682984D-03-7.79877700D-03-1.22438321D-02 2.64294389D-02
 -1.52963205D-01 1.09003377D-01-3.18204490D-02 7.57802772D-02
 Leave Link  716 at Sun Jun 27 11:55:49 2021, MaxMem= 2415919104 cpu:       0.1

 GradGradGradGradGradGradGradGradGradGradGradGradGradGradGradGradGradGrad
 Step number   1 out of a maximum of    2
 All quantities printed in internal units (Hartrees-Bohrs-Radians)
 Second derivative matrix not updated -- analytic derivatives used.
 ITU=  0
     Eigenvalues ---   -0.09406   0.14108   0.15764   0.26449   0.94801
     Eigenvalues ---    1.70446
 Eigenvalue     1 is  -9.41D-02 should be greater than     0.000000 Eigenvector:
                          Y1        Y3        Y2        Y4        Z3
   1                    0.54261  -0.49617  -0.47239  -0.46705   0.06768
                          Z4        X4        X2        X1        Z1
   1                    0.05724   0.05468   0.05186  -0.04749  -0.04104
 Quadratic step=1.112D+00 exceeds max=3.000D-01 adjusted using Lamda=-4.487D-01.
 Angle between NR and scaled steps=  13.55 degrees.
 Angle between quadratic step and forces=  34.03 degrees.
 Linear search not attempted -- first point.
 Variable       Old X    -DE/DX   Delta X   Delta X   Delta X     New X
                                 (Linear)    (Quad)   (Total)
    X1        0.00000  -0.07375   0.00000  -0.04970  -0.07034  -0.07034
    Y1        0.00000  -0.00639   0.00000   0.00031   0.00022   0.00022
    Z1        0.00000  -0.15296   0.00000  -0.04525  -0.06407  -0.06407
    X2        0.00000  -0.03094   0.00000  -0.04445  -0.06477  -0.06477
    Y2        0.00000  -0.00780   0.00000  -0.01566  -0.01266  -0.01266
    Z2        1.77634   0.10900   0.00000   0.05069   0.03188   1.80823
    X3        1.90272  -0.03831   0.00000  -0.06325  -0.08393   1.81879
    Y3        0.00000  -0.01224   0.00000  -0.02499  -0.02347  -0.02347
    Z3       -0.49208  -0.03182   0.00000  -0.05227  -0.07135  -0.56343
    X4       -1.95986   0.14300   0.00000   0.23921   0.21903  -1.74083
    Y4       -0.52514   0.02643   0.00000   0.03984   0.03591  -0.48924
    Z4       -1.20953   0.07578   0.00000   0.12130   0.10354  -1.10599
         Item               Value     Threshold  Converged?
 Maximum Force            0.152963     0.000450     NO 
 RMS     Force            0.077080     0.000300     NO 
 Maximum Displacement     0.219034     0.001800     NO 
 RMS     Displacement     0.085194     0.001200     NO 
 GradGradGradGradGradGradGradGradGradGradGradGradGradGradGradGradGradGrad


 Test job not archived.
 1\1\GINC-XC02N13\Freq\RHF\STO-3G\H3N1\ZYZHU\27-Jun-2021\0\\#t Freq(Anh
 armonic) NoSymm Temperature=2500 IOp(7/33=3)\\[No Title]\\0,1\N,0.,0.,
 0.\H,0.,0.,0.94\H,1.006874,0.,-0.260395\H,-1.037114,-0.277894,-0.64005
 4\\Version=EM64L-G09RevC.01\HF=-55.3753154\RMSD=5.540e-09\RMSF=7.708e-
 02\ZeroPoint=0.0333579\Thermal=0.0736847\Dipole=-0.0053475,-0.2056773,
 0.0287949\DipoleDeriv=-0.1502714,0.1117112,0.0029482,0.1462922,-1.1177
 353,0.1181768,0.0019529,0.0886813,-0.1865939,0.0143402,-0.0569953,-0.0
 409074,-0.0627213,0.3759126,0.0170004,0.0250797,-0.0080466,0.000882,0.
 0255612,-0.0218143,0.0413307,-0.0041605,0.3794876,-0.0681302,-0.052393
 9,-0.0540433,0.069823,0.11037,-0.0329016,-0.0033715,-0.0794104,0.36233
 51,-0.0670471,0.0253613,-0.0265914,0.1158889\Polar=8.226599,1.0427658,
 0.7155859,1.8171654,0.5840104,4.9323169\HyperPolar=0.6063259,-1.024483
 1,-0.8118981,-1.1722734,-8.4582584,-1.2352277,-0.5647244,-2.9296899,0.
 1355191,5.2196062\Quadrupole=1.017843,-1.2843725,0.2665295,0.3266424,0
 .4361338,0.2079534\PG=C01 [X(H3N1)]\NImag=1\\0.68890307,0.04944908,-0.
 08219031,-0.10893028,0.04362123,1.19538085,-0.05354971,-0.01760777,-0.
 01053680,0.04548426,-0.02052328,0.08116400,0.01099447,0.01254698,-0.06
 755193,0.02402882,-0.01979294,-0.91471367,-0.02311225,0.00356764,0.921
 40845,-0.49416191,-0.01850072,0.13373282,-0.00026219,0.00448647,-0.012
 68583,0.49007104,0.00286555,0.02142677,-0.02577234,-0.00058343,0.00062
 863,0.00663256,0.00334910,-0.00050591,0.08601742,-0.01365359,-0.140733
 01,0.06363704,-0.00328296,-0.00808538,-0.13357362,0.01077986,0.1367473
 7,-0.14119144,-0.01334058,-0.01426573,0.00832764,0.00348983,0.01176926
 ,0.00435306,-0.00563122,-0.01608083,0.12851074,-0.03179134,-0.02040046
 ,-0.02884337,0.00564422,-0.01424069,0.00959274,0.01066515,-0.02154949,
 0.00615669,0.01548198,0.05619065,-0.00111595,-0.01017470,-0.13993417,-
 0.02998798,-0.01127915,0.00139060,0.01252664,0.00835992,0.01207103,0.0
 1857730,0.01309393,0.12647254\\0.07374541,0.00638683,0.15296321,0.0309
 3855,0.00779878,-0.10900338,0.03831423,0.01224383,0.03182045,-0.142998
 19,-0.02642944,-0.07578028\\\@


 YOU SHOULDN'T LET PEOPLE DRIVE YOU CRAZY
 WHEN YOU KNOW IT'S WITHIN WALKING DISTANCE.
 Job cpu time:  0 days  0 hours  0 minutes 45.3 seconds.
 File lengths (MBytes):  RWF=     43 Int=      0 D2E=      0 Chk=     38 Scr=      1
 Normal termination of Gaussian 09 at Sun Jun 27 11:55:50 2021.
