[No Title]                                                              
Freq      RHF                                                         STO-3G              
Number of atoms                            I                7
Info1-9                                    I   N=           9
          16          15           0           0           0         101
           6           1           2
Charge                                     I                1
Multiplicity                               I                1
Number of electrons                        I               44
Number of alpha electrons                  I               22
Number of beta electrons                   I               22
Number of basis functions                  I               31
Number of independent functions            I               31
Number of point charges in /Mol/           I                0
Number of translation vectors              I                0
Atomic numbers                             I   N=           7
           6           8           6           8           8           8
           1
Nuclear charges                            R   N=           7
  6.00000000E+00  8.00000000E+00  6.00000000E+00  8.00000000E+00  8.00000000E+00
  8.00000000E+00  1.00000000E+00
Current cartesian coordinates              R   N=          21
  1.60759380E+00 -2.11843969E-01 -1.00588610E+00 -4.64934990E-01 -6.60047323E-01
  3.70596082E-01  4.11297570E+00 -8.18963842E-01  3.09867843E-01  3.59672331E+00
 -2.34736111E+00  2.26298484E+00  1.13472952E+00  6.11691121E-01 -3.13555265E+00
  5.64772623E+00  8.63912868E-01  4.63472342E-01  9.19111768E-01 -2.53707072E+00
  2.33307856E+00
Force Field                                I                0
Int Atom Types                             I   N=           7
           0           0           0           0           0           0
           0
MM charges                                 R   N=           7
  0.00000000E+00  0.00000000E+00  0.00000000E+00  0.00000000E+00  0.00000000E+00
  0.00000000E+00  0.00000000E+00
Integer atomic weights                     I   N=           7
          12          16          12          16          16          16
           1
Real atomic weights                        R   N=           7
  1.20000000E+01  1.59949146E+01  1.20000000E+01  1.59949146E+01  1.59949146E+01
  1.59949146E+01  1.00782504E+00
Atom fragment info                         I   N=           7
           0           0           0           0           0           0
           0
Atom residue num                           I   N=           7
           0           0           0           0           0           0
           0
Nuclear spins                              I   N=           7
           0           0           0           0           0           0
           1
Nuclear ZEff                               R   N=           7
 -3.60000000E+00 -5.60000000E+00 -3.60000000E+00 -5.60000000E+00 -5.60000000E+00
 -5.60000000E+00 -1.00000000E+00
Nuclear QMom                               R   N=           7
  0.00000000E+00  0.00000000E+00  0.00000000E+00  0.00000000E+00  0.00000000E+00
  0.00000000E+00  0.00000000E+00
Nuclear GFac                               R   N=           7
  0.00000000E+00  0.00000000E+00  0.00000000E+00  0.00000000E+00  0.00000000E+00
  0.00000000E+00  2.79284600E+00
MicOpt                                     I   N=           7
          -1          -1          -1          -1          -1          -1
          -1
Number of contracted shells                I               13
Number of primitive shells                 I               39
Pure/Cartesian d shells                    I                0
Pure/Cartesian f shells                    I                0
Highest angular momentum                   I                1
Largest degree of contraction              I                3
Shell types                                I   N=          13
           0          -1           0          -1           0          -1
           0          -1           0          -1           0          -1
           0
Number of primitives per shell             I   N=          13
           3           3           3           3           3           3
           3           3           3           3           3           3
           3
Shell to atom map                          I   N=          13
           1           1           2           2           3           3
           4           4           5           5           6           6
           7
Primitive exponents                        R   N=          39
  7.16168373E+01  1.30450963E+01  3.53051216E+00  2.94124936E+00  6.83483096E-01
  2.22289916E-01  1.30709321E+02  2.38088661E+01  6.44360831E+00  5.03315132E+00
  1.16959612E+00  3.80388960E-01  7.16168373E+01  1.30450963E+01  3.53051216E+00
  2.94124936E+00  6.83483096E-01  2.22289916E-01  1.30709321E+02  2.38088661E+01
  6.44360831E+00  5.03315132E+00  1.16959612E+00  3.80388960E-01  1.30709321E+02
  2.38088661E+01  6.44360831E+00  5.03315132E+00  1.16959612E+00  3.80388960E-01
  1.30709321E+02  2.38088661E+01  6.44360831E+00  5.03315132E+00  1.16959612E+00
  3.80388960E-01  3.42525091E+00  6.23913730E-01  1.68855404E-01
Contraction coefficients                   R   N=          39
  1.54328967E-01  5.35328142E-01  4.44634542E-01 -9.99672292E-02  3.99512826E-01
  7.00115469E-01  1.54328967E-01  5.35328142E-01  4.44634542E-01 -9.99672292E-02
  3.99512826E-01  7.00115469E-01  1.54328967E-01  5.35328142E-01  4.44634542E-01
 -9.99672292E-02  3.99512826E-01  7.00115469E-01  1.54328967E-01  5.35328142E-01
  4.44634542E-01 -9.99672292E-02  3.99512826E-01  7.00115469E-01  1.54328967E-01
  5.35328142E-01  4.44634542E-01 -9.99672292E-02  3.99512826E-01  7.00115469E-01
  1.54328967E-01  5.35328142E-01  4.44634542E-01 -9.99672292E-02  3.99512826E-01
  7.00115469E-01  1.54328967E-01  5.35328142E-01  4.44634542E-01
P(S=P) Contraction coefficients            R   N=          39
  0.00000000E+00  0.00000000E+00  0.00000000E+00  1.55916275E-01  6.07683719E-01
  3.91957393E-01  0.00000000E+00  0.00000000E+00  0.00000000E+00  1.55916275E-01
  6.07683719E-01  3.91957393E-01  0.00000000E+00  0.00000000E+00  0.00000000E+00
  1.55916275E-01  6.07683719E-01  3.91957393E-01  0.00000000E+00  0.00000000E+00
  0.00000000E+00  1.55916275E-01  6.07683719E-01  3.91957393E-01  0.00000000E+00
  0.00000000E+00  0.00000000E+00  1.55916275E-01  6.07683719E-01  3.91957393E-01
  0.00000000E+00  0.00000000E+00  0.00000000E+00  1.55916275E-01  6.07683719E-01
  3.91957393E-01  0.00000000E+00  0.00000000E+00  0.00000000E+00
Coordinates of each shell                  R   N=          39
  1.60759380E+00 -2.11843969E-01 -1.00588610E+00  1.60759380E+00 -2.11843969E-01
 -1.00588610E+00 -4.64934990E-01 -6.60047323E-01  3.70596082E-01 -4.64934990E-01
 -6.60047323E-01  3.70596082E-01  4.11297570E+00 -8.18963842E-01  3.09867843E-01
  4.11297570E+00 -8.18963842E-01  3.09867843E-01  3.59672331E+00 -2.34736111E+00
  2.26298484E+00  3.59672331E+00 -2.34736111E+00  2.26298484E+00  1.13472952E+00
  6.11691121E-01 -3.13555265E+00  1.13472952E+00  6.11691121E-01 -3.13555265E+00
  5.64772623E+00  8.63912868E-01  4.63472342E-01  5.64772623E+00  8.63912868E-01
  4.63472342E-01  9.19111768E-01 -2.53707072E+00  2.33307856E+00
Constraint Structure                       R   N=          21
  1.60759380E+00 -2.11843969E-01 -1.00588610E+00 -4.64934990E-01 -6.60047323E-01
  3.70596082E-01  4.11297570E+00 -8.18963842E-01  3.09867843E-01  3.59672331E+00
 -2.34736111E+00  2.26298484E+00  1.13472952E+00  6.11691121E-01 -3.13555265E+00
  5.64772623E+00  8.63912868E-01  4.63472342E-01  9.19111768E-01 -2.53707072E+00
  2.33307856E+00
Num ILSW                                   I              100
ILSW                                       I   N=         100
           0           0           0           0           2           0
           0           0           0           0           0          -1
           0           0           0           0           0           0
           0           0           0           0           1           0
           1           1           0           0           0           0
           0           0      100000           0          -1           0
           0           0           0           0           0           0
           0           0           0           1           0           0
           0           0           1           0           0           0
           0           0           4          40           0           0
           0           0           0           0           0           0
           0           0           0           0           0           0
           0           0           0           0           0           0
           0           0           0           0           0           0
           0           0           0           0           0           0
           0           0           0           0           0           0
           0           0           0           0
Num RLSW                                   I               40
RLSW                                       R   N=          40
  1.00000000E+00  1.00000000E+00  1.00000000E+00  1.00000000E+00  1.00000000E+00
  0.00000000E+00  0.00000000E+00  1.00000000E+00  0.00000000E+00  0.00000000E+00
  0.00000000E+00  0.00000000E+00  1.00000000E+00  0.00000000E+00  0.00000000E+00
  0.00000000E+00  0.00000000E+00  1.00000000E+00  0.00000000E+00  0.00000000E+00
  0.00000000E+00  0.00000000E+00  1.00000000E+00  0.00000000E+00  0.00000000E+00
  0.00000000E+00  0.00000000E+00  1.00000000E+00  0.00000000E+00  0.00000000E+00
  0.00000000E+00  0.00000000E+00  1.00000000E+00  0.00000000E+00  0.00000000E+00
  0.00000000E+00  0.00000000E+00  0.00000000E+00  1.00000000E+00  1.00000000E+00
MxBond                                     I                3
NBond                                      I   N=           7
           3           1           3           1           1           1
           0
IBond                                      I   N=          21
           2           3           5           1           0           0
           1           4           6           3           0           0
           1           0           0           3           0           0
           0           0           0
RBond                                      R   N=          21
  1.50000000E+00  1.00000000E+00  2.00000000E+00  1.50000000E+00  0.00000000E+00
  0.00000000E+00  1.00000000E+00  1.50000000E+00  2.00000000E+00  1.50000000E+00
  0.00000000E+00  0.00000000E+00  2.00000000E+00  0.00000000E+00  0.00000000E+00
  2.00000000E+00  0.00000000E+00  0.00000000E+00  0.00000000E+00  0.00000000E+00
  0.00000000E+00
Virial Ratio                               R      2.013861397081797E+00
SCF Energy                                 R     -3.701191647916133E+02
Total Energy                               R     -3.701191647916133E+02
RMS Force                                  R      5.952168741949064E-02
RMS Density                                R      2.053498727072874E-09
External E-field                           R   N=          35
  0.00000000E+00  0.00000000E+00  0.00000000E+00  0.00000000E+00  0.00000000E+00
  0.00000000E+00  0.00000000E+00  0.00000000E+00  0.00000000E+00  0.00000000E+00
  0.00000000E+00  0.00000000E+00  0.00000000E+00  0.00000000E+00  0.00000000E+00
  0.00000000E+00  0.00000000E+00  0.00000000E+00  0.00000000E+00  0.00000000E+00
  0.00000000E+00  0.00000000E+00  0.00000000E+00  0.00000000E+00  0.00000000E+00
  0.00000000E+00  0.00000000E+00  0.00000000E+00  0.00000000E+00  0.00000000E+00
  0.00000000E+00  0.00000000E+00  0.00000000E+00  0.00000000E+00  0.00000000E+00
IOpCl                                      I                0
IROHF                                      I                0
Alpha Orbital Energies                     R   N=          31
 -2.08589716E+01 -2.07440740E+01 -2.06600067E+01 -2.06471729E+01 -1.15801350E+01
 -1.15277401E+01 -1.78703785E+00 -1.68864175E+00 -1.63207168E+00 -1.56314448E+00
 -1.17816660E+00 -1.01968783E+00 -9.56676678E-01 -9.39640393E-01 -9.04601409E-01
 -8.42410301E-01 -8.25753437E-01 -7.97892210E-01 -7.44868505E-01 -6.71381777E-01
 -6.46254620E-01 -6.34266061E-01 -3.36371678E-01 -1.12306892E-01 -2.44849318E-02
  4.12654179E-02  2.60299802E-01  3.34870868E-01  4.60186849E-01  5.27084032E-01
  6.65300957E-01
Alpha MO coefficients                      R   N=         961
  5.39903487E-04 -6.82877340E-03  1.45935902E-03 -2.15491640E-03  5.53177793E-03
  3.92580103E-04  4.97079515E-04  4.85980964E-05  1.72049495E-04 -4.11295957E-04
 -1.41037339E-05  3.65742435E-05  2.11380746E-04  1.55805632E-04 -3.56591425E-04
 -1.43598155E-07  4.64026297E-05  6.16352393E-05  1.56269743E-05 -6.51713384E-06
  9.94471325E-01  2.50065797E-02  1.09031052E-03 -1.90060288E-03  4.94011445E-03
 -7.36596136E-06 -6.34730755E-05 -1.21516997E-05  7.58009982E-05  1.47760109E-05
 -7.78145573E-05  5.66880066E-04 -5.43833807E-03  4.26815159E-03  7.91224670E-04
 -2.56395428E-03  9.94522527E-01  2.39447107E-02  3.57030345E-03  3.68816686E-04
 -1.97150969E-03 -1.72081950E-05  2.38866674E-04 -3.19175218E-04 -1.03727447E-04
  2.06429107E-04  4.75875588E-04  2.83445977E-04 -3.04736069E-04 -9.78924275E-05
  5.99768931E-05 -4.76922114E-04  4.85756995E-04 -3.43721798E-04 -1.02858958E-04
  3.66191667E-04  1.97060757E-06  3.46834378E-05 -3.72219593E-07 -3.91113768E-05
  7.72001809E-07 -1.73007169E-03 -1.70056412E-05  3.30798414E-04  3.23886288E-04
  2.69703935E-04  6.80508918E-05 -7.82596420E-06  1.75858789E-05  8.84826727E-07
 -2.17682176E-06 -2.28590681E-05  5.45870259E-04 -7.51363105E-03 -4.24509691E-03
 -4.84704677E-03 -5.39720896E-04  2.15503266E-03  3.67437843E-04  3.29235053E-04
  3.51892838E-04  1.09269418E-04  6.91553634E-06 -2.78141231E-05 -1.36925660E-05
 -2.03700358E-05 -1.87230115E-05  9.94327832E-01  2.59246836E-02 -3.97821439E-03
 -4.31702001E-03 -4.14642064E-04 -3.61343644E-05 -1.63453531E-05  3.84208675E-04
  9.42181337E-05 -1.96709582E-04  3.32785368E-04 -5.65424035E-04  2.60036209E-04
  3.03964057E-05 -2.01696081E-04  2.23000749E-04  5.58516164E-04 -5.34401919E-03
  1.10679266E-03  2.93477899E-03 -3.95930387E-03  9.94436436E-01  2.43658589E-02
 -2.74488534E-04  2.40293932E-03 -3.22808209E-03 -2.60310743E-06  4.03541159E-05
 -3.38265968E-05 -3.10893245E-06  4.01604906E-05 -2.22128717E-03  1.91756452E-04
 -1.86436080E-05 -2.24879576E-04  4.79423669E-04 -2.51917571E-03  9.92747888E-01
  3.14146023E-02 -9.39342351E-04  1.88201928E-04 -6.24150602E-04  3.86535171E-04
 -5.17640617E-03 -1.84219598E-03 -6.25392914E-04  1.55430190E-03 -3.72521949E-03
 -5.52075015E-03  3.17153729E-03 -9.77801169E-04  1.74589051E-03 -5.70956647E-06
  2.77640273E-04  2.68839227E-05  6.44955541E-05 -1.55044617E-05  1.99982887E-04
 -5.78607030E-03 -3.11122397E-04  6.90813300E-04 -1.64115957E-03 -1.05255260E-05
  3.28004222E-04 -1.59274849E-04 -1.49566476E-04 -1.96622146E-05 -7.49643395E-04
  4.80574877E-03 -5.87068567E-03 -3.82538114E-03  6.91270653E-04 -2.15055400E-03
 -1.16711638E-05  2.37424494E-04  1.30304594E-04 -3.99650147E-06 -1.23867287E-06
  9.92703623E-01  3.17562756E-02 -1.54216656E-03  2.13974265E-03  1.15908608E-03
  3.74737470E-04 -5.01092109E-03 -6.24974109E-04 -1.67730391E-03  1.63941544E-03
 -1.82825156E-05  9.00756893E-05  2.62122602E-04  4.56949789E-06  9.20311705E-06
  1.14534426E-04 -5.76733522E-03  1.22311055E-03  1.02814559E-03 -6.50862045E-05
 -5.58488573E-04 -1.34469081E-01  3.00355013E-01 -6.27544113E-02  3.27520715E-02
 -8.13285943E-02 -9.34485852E-02  3.25939395E-01  6.97934713E-02  6.64883421E-03
 -4.93983418E-02 -3.29883284E-02  7.78646425E-02 -2.02561149E-02  1.03998397E-02
 -3.06157223E-03 -1.95997217E-02  6.65339362E-02 -3.07633114E-03  1.15326311E-02
 -1.39734233E-02 -1.84929354E-01  6.50869694E-01  2.75953309E-02 -6.25240422E-02
  1.64618002E-01 -2.20799672E-02  7.43096897E-02 -1.84534953E-02 -1.62939369E-02
 -1.56286497E-03  1.20701005E-02 -1.08367890E-03  8.22357260E-03  3.35249400E-02
 -2.93478631E-02  7.52122911E-02 -2.11273813E-02  7.60071826E-02  1.80211827E-02
 -5.02048323E-03  3.91302134E-03 -1.41102793E-01  3.24352359E-01  4.93503501E-02
  6.23623337E-02  5.01383498E-02 -1.08582002E-01  3.82884260E-01  2.05383650E-03
  6.05088055E-02 -6.80899040E-02  6.21023833E-02 -2.23135889E-01 -6.92918526E-03
  1.72238204E-02 -4.17036108E-02 -1.64951774E-01  5.67795300E-01 -1.13525701E-01
 -1.11826344E-01 -2.93375939E-03  2.52214035E-02 -2.88153247E-02  8.72788875E-02
 -9.57725086E-02 -5.90096931E-02  1.66285916E-01 -1.96710890E-01  7.21771444E-01
  1.09807990E-01 -9.20051355E-03 -4.31877382E-02  2.47284993E-02 -5.80361506E-02
 -5.53963114E-02 -5.45272682E-02  7.76930687E-03 -2.13202837E-02  7.55268770E-02
 -1.50601387E-02  4.37285848E-03 -9.31794824E-03  1.08464684E-01 -4.00107283E-01
 -3.41311252E-02  2.03493575E-02 -5.60810465E-02  7.14289658E-02 -2.48709897E-01
  4.28417150E-02  4.16276338E-02  5.85949513E-03  3.36460645E-02  7.00227533E-03
 -2.49746815E-02  4.01321036E-02  4.22558282E-03 -3.63946042E-02  6.26436591E-02
 -2.35595649E-01 -2.32378755E-02 -6.54765252E-03  2.08332306E-02 -1.47071771E-02
  5.23668082E-02 -1.17100935E-01 -1.72229650E-01  9.99537493E-02 -1.94681739E-01
  7.11522185E-01 -1.58850412E-02  6.06254014E-02 -8.57294445E-02 -2.64958681E-02
  1.01459317E-01  9.21089909E-03 -5.36498182E-03  8.01360687E-03  1.20685196E-01
 -4.27266687E-01  6.17478019E-02  5.11709543E-02  1.70983530E-02  4.53524453E-02
 -1.42140255E-01  4.57843411E-01  2.55751597E-01 -6.36577730E-02  1.14404574E-01
  6.77668732E-02 -2.95466451E-01  1.37940123E-01 -3.37189031E-03 -2.62456975E-03
 -9.80622164E-02  2.99992309E-01 -2.46269878E-01  2.94599603E-02 -1.49524624E-01
  6.61540498E-02 -2.82153466E-01 -3.56112525E-02  3.68819054E-02 -7.51554138E-02
  6.29413732E-02 -2.74264328E-01  1.27134214E-01 -3.28404988E-02  1.02253272E-01
  6.16697739E-02 -2.54750803E-01 -8.43427953E-02  1.59642656E-02 -6.15214586E-02
 -3.58454360E-02  8.08779010E-02 -2.72885372E-01  2.64516093E-01 -4.33051507E-02
  2.05895495E-01 -5.11474270E-02  2.48135118E-01 -3.28909594E-02 -4.09318812E-02
  3.16868901E-01 -4.13406278E-02  1.29228068E-01 -9.00031739E-02  3.39833395E-02
 -4.34294023E-02  3.04359718E-02 -1.37032990E-01 -6.04408477E-02  3.57910502E-02
 -3.98266102E-02 -1.02723545E-01  5.11415416E-01  9.11273861E-02  2.64245447E-01
 -4.88527559E-01  2.23966164E-02 -1.00885756E-01 -6.74885968E-02 -4.25079024E-03
 -2.78463363E-02  8.24930524E-02 -1.53629570E-02  4.66698155E-02  1.80066268E-01
  2.05519644E-01 -1.10213227E-01 -2.61073292E-02  1.35820755E-01 -8.63309243E-02
  1.83930099E-02  2.46981071E-01  8.72517936E-02 -3.10817179E-01 -5.78139117E-02
  1.29997591E-01 -1.66958234E-01 -6.32603720E-02  3.08958416E-01 -2.04376695E-01
 -1.97749465E-01  2.12663994E-01  3.43258504E-02 -1.77332380E-01  3.15087438E-01
  1.64055849E-01  2.64320871E-01 -4.55499192E-02  2.14586279E-01  3.02317188E-02
  2.06620208E-01 -1.25596456E-01  2.03462917E-01 -2.50350732E-02  9.76958964E-02
 -8.80882896E-02 -2.93504710E-01  1.34423059E-01  6.03008952E-02 -2.96358174E-01
  3.30099296E-01 -1.86843682E-01 -7.49879979E-02  7.22428916E-02 -2.56642239E-01
 -1.22197674E-01  6.55818233E-03 -1.21759577E-01 -2.46867170E-02  1.25744310E-01
 -2.09517638E-01 -1.53568858E-01  8.82652638E-02 -2.59475793E-02  1.40174219E-01
 -2.39013568E-01 -2.20017864E-01 -2.52656060E-01 -7.08603675E-02  3.44559041E-01
  1.31373043E-01  2.30617099E-01 -7.70946053E-02  1.54759822E-01 -2.86245750E-02
  1.13740586E-01 -2.00530765E-01  2.96304602E-01  3.41020059E-01  5.88881008E-02
 -3.01533943E-01  3.10080490E-01  1.67739331E-01 -8.97767798E-02  3.81594794E-02
 -1.39143756E-01 -8.71719425E-02  1.55879348E-01  2.11035152E-01 -6.41549827E-03
  2.76163119E-02 -1.81423028E-02  1.58430275E-01  1.25943567E-01 -1.48791191E-02
  8.41035143E-02 -2.79694101E-02  4.19422084E-01  1.92239508E-02 -7.19864847E-03
  3.08166831E-02 -8.05400861E-02  9.49491986E-02  1.36005514E-01 -5.19641103E-02
 -1.26712511E-02  5.47459972E-02  3.80496246E-02  4.21729997E-02  5.36175186E-02
 -3.39648229E-03  1.55888703E-02  1.20374790E-02  4.09984295E-02 -4.24133521E-02
  1.57860190E-02 -4.09734578E-02 -9.73177339E-02 -4.34929344E-01  6.90236177E-03
  2.84096840E-02 -1.53009194E-01  1.49967822E-01 -7.04668645E-02 -3.51444547E-01
 -9.06131550E-04  6.46234544E-03  2.15145933E-01  2.58517234E-01  1.96814488E-02
 -8.07675396E-02  4.27921197E-01  4.71719297E-01  2.27742512E-01  9.99351708E-03
 -1.36267654E-01  6.13163101E-03 -3.83723657E-02  8.23947964E-02 -6.53352323E-02
 -1.55979887E-01 -1.30387203E-02  7.61131742E-02  4.65411034E-03 -1.34126787E-01
  3.28974603E-01  2.45494411E-02 -8.97172164E-02 -2.18183154E-01  1.47796126E-02
  3.81365387E-01  4.99016174E-02 -2.57376630E-01 -9.50249178E-02  4.46827753E-01
 -1.02415239E-02  1.02638257E-02 -5.90269378E-02  3.69709986E-02 -2.64005272E-01
  1.44338243E-01 -3.44501716E-02  1.79637974E-01  6.06108528E-02  1.72657659E-01
  3.37094630E-01  9.59999000E-02 -1.11044873E-02  4.73541783E-02 -7.24275507E-02
 -2.52702398E-02  3.31994860E-04  2.39956406E-02 -1.18836885E-01  5.10253644E-01
 -2.62933826E-01  3.64294663E-01 -1.46545182E-03 -1.01545562E-02  3.30602693E-01
 -9.92784116E-02  5.50702452E-03  1.66962291E-02 -7.80963835E-02  1.30731312E-02
 -1.17998794E-01 -2.78256332E-02  3.60987621E-03 -2.05760524E-02  1.88653434E-01
  8.84585179E-02  1.53225180E-01  2.45718134E-02 -1.35064219E-01  1.40671399E-01
 -4.23998053E-01  1.30333744E-01  1.72340078E-01 -1.07286583E-02  5.61135381E-02
  6.41364531E-02 -2.70317378E-01 -9.36392393E-02 -6.25404458E-03  3.26045222E-02
 -4.00528243E-02 -3.36426390E-01 -5.26218720E-01  2.72314722E-02 -1.20772964E-01
  4.27781028E-02  9.61126181E-02  7.88923292E-02 -1.42479610E-02  7.23097605E-02
  5.92031984E-03  1.38426777E-01  2.17742971E-01  1.97126265E-03 -1.05313764E-02
  5.58465018E-01  2.32662565E-01 -1.58455585E-01  7.85136040E-04 -1.19949868E-02
 -4.28988241E-03 -6.11205335E-02  1.55151098E-01 -3.39538695E-02 -3.56205855E-02
  1.60967009E-01  1.37083835E-01 -7.19041105E-02  4.67440390E-02 -1.39326567E-02
  6.97789570E-02  2.15288217E-01  1.12093237E-01  2.79831634E-01  3.66483482E-02
 -1.50081657E-01  7.78460262E-02  3.97092583E-02 -3.07069739E-02 -5.04071136E-02
  2.53680145E-01  5.81387516E-01  1.21365368E-01  3.84475195E-01  1.67134768E-03
 -5.37707853E-03  1.13965274E-01 -2.22306468E-01 -1.48815473E-01 -4.78490979E-03
  1.87962192E-02  7.72147106E-02  1.36064850E-01 -1.25848692E-01 -3.39490597E-01
 -3.95209658E-03  1.88957683E-02  5.03322199E-04  4.16406503E-02  3.67633031E-02
  7.30000269E-03 -3.77036588E-02 -9.07574889E-02  1.20186821E-01 -6.17008609E-02
 -2.14535872E-02  1.00014877E-01  7.43233592E-02 -1.25174170E-01 -1.83883225E-01
  8.39759766E-03 -3.63111287E-02 -2.49453059E-01  6.01324592E-01  3.39369716E-01
  6.92563143E-04 -1.49977731E-03 -1.13047604E-01  5.73588806E-02  7.86275029E-03
  1.35382809E-03 -7.02541154E-03  4.45737512E-01 -2.23130779E-01 -3.21651201E-01
  9.22830892E-02 -5.55607773E-02  2.54703751E-01  1.97759315E-01  1.45108612E-03
  1.31881760E-01  6.04487247E-03 -3.39008043E-02 -1.85746449E-01  4.09180326E-01
 -4.32796368E-02  1.97188291E-02 -9.88508219E-02 -3.00150454E-02  4.70480003E-02
 -1.39397835E-02 -1.12005827E-02  5.90262898E-02 -1.35071075E-01 -2.71487141E-01
  1.64662382E-01  4.86473137E-03 -1.69355451E-02 -8.71278576E-03 -1.75758038E-01
 -1.91560479E-01 -7.26443435E-03  3.69994773E-02  3.18806236E-01 -3.29089216E-01
  5.89904944E-01 -1.76772065E-02  1.83691011E-02 -7.17080516E-02 -1.94339994E-01
  1.52829061E-02 -3.56895508E-02  6.89693360E-03 -4.58831832E-02  1.91674958E-01
  4.95223355E-01 -2.59392398E-02  1.74655333E-02 -7.90607589E-02  1.29049991E-01
 -2.77147589E-02  1.17636269E-01  5.98803711E-03 -3.28491977E-02 -2.70252238E-01
  8.05313716E-02 -2.45434073E-01  2.43191487E-03 -1.78592070E-02  5.40754741E-01
 -3.34182794E-01 -2.30504976E-01 -6.72979702E-04 -2.27237653E-03 -1.60235777E-01
  1.87167079E-02 -2.56732467E-01  5.01912365E-02 -1.41816393E-02  7.04295681E-02
  1.47797124E-01  5.91663356E-01  2.47435323E-01 -2.63828807E-03  1.90860182E-02
 -7.31110281E-02 -4.30746569E-01 -1.67639961E-01  3.10972835E-02 -1.54635323E-01
 -9.11623992E-02  2.58399799E-01  2.45928208E-01 -5.73252194E-03  2.95465198E-02
  8.99343002E-02 -9.36066273E-02 -2.06408935E-01 -1.74915593E-04  2.79834952E-03
  3.91936645E-02 -4.10671189E-01 -1.60798608E-01  5.87499594E-03 -4.30602789E-02
  2.97294972E-01 -2.02031399E-01 -2.67041643E-01  1.15685887E-02  6.87081277E-03
 -2.38498906E-02  4.56206815E-03  4.72576241E-01  6.89148052E-02  1.32668119E-02
 -6.72178082E-02  1.16175405E-02 -4.97720062E-02 -2.23410631E-01 -5.25702758E-02
  2.82360410E-01  2.77260421E-01 -3.54165785E-01 -2.93259413E-01  3.97764768E-02
 -2.17561774E-01  2.47344556E-01  1.24291027E-01  1.87114682E-01  7.96291014E-03
 -5.45743437E-02  3.86650280E-02 -2.26853189E-01 -1.76420158E-01  1.39835979E-02
 -7.60394560E-02 -1.49187516E-01  3.56751062E-01  3.02250771E-01  5.75682653E-01
 -5.77215315E-02  3.12466104E-01  5.22792419E-02 -3.36040459E-01 -6.18764992E-03
  4.31063088E-02 -2.45720188E-01 -2.34340377E-01  2.93030318E-01 -5.33331988E-02
  3.95784119E-02 -2.22946104E-01 -2.02966010E-02  1.76013998E-01  3.65843552E-01
  4.29021376E-02 -2.40406570E-01  5.20393783E-01 -7.48279041E-02 -7.04356156E-02
  7.78736496E-03 -4.39921442E-02 -4.15260492E-02  1.78382136E-01  1.62723804E-03
 -1.67991361E-03  2.11187523E-03  8.98592597E-02 -1.01948386E-01 -2.60434973E-01
  7.45913704E-01 -1.85494637E-01  1.12489653E+00  4.02964075E-01  3.21598286E-02
 -3.92436357E-02  1.79091120E-02 -1.12740540E-01 -1.79710096E-01 -9.02333181E-02
  1.18694480E-01  1.37430199E-01 -7.98452482E-01  7.12904352E-01 -2.00759288E-01
  1.67705376E-01 -3.11268824E-02  1.93727809E-01 -2.02353029E-01  1.99034721E-01
 -2.34931371E-01  5.26884134E-02 -3.57406423E-01 -2.46074795E-01  1.67944037E-01
 -3.69243943E-01 -1.21893404E-02  7.02748233E-02 -2.50805324E-01  7.22251044E-02
 -2.47081893E-02 -1.23347449E-01 -7.10136373E-02  3.95903940E-01 -5.52979825E-01
 -1.37184054E-01  6.32563964E-01  6.98345885E-02 -4.73740523E-01 -5.91132574E-01
 -2.00547980E-01  3.38059314E-01 -5.02532167E-02  2.73925571E-01  5.07266407E-02
 -4.01816441E-01  3.30308620E-01  4.57421048E-02 -3.01298432E-01 -1.52018165E-01
 -2.59579173E-01  4.06394303E-01 -1.93128156E-02  1.50663967E-01  2.55042367E-01
 -1.01215007E-01  9.34174664E-02 -4.07303078E-03  4.01065595E-02 -1.16154347E-01
  5.48980741E-02 -1.41676611E-01 -1.31645488E-01  5.41553154E-02 -3.09495919E-01
  8.00901173E-01 -5.14816845E-02  2.87710930E-02 -5.53076148E-02  3.79108965E-01
  3.29943454E-01  1.27224523E-01 -3.19050961E-01 -5.69238027E-02  3.10034730E-01
  2.94727892E-01 -3.27142944E-01  7.60493200E-01  6.14454516E-02 -4.16090266E-01
 -2.44933438E-01 -3.56597258E-01  3.96794217E-01 -2.94754455E-02  2.16600755E-01
 -1.58303906E-01 -6.73142641E-02  2.61725853E-01  2.02828879E-02 -1.37116944E-01
  2.31888140E-02  2.04379655E-01 -2.29729765E-01 -5.33732544E-02  6.28722437E-02
 -4.16459936E-01  4.53941152E-01 -2.86841619E-01  9.12303101E-01 -5.93009942E-03
  3.71807788E-02 -7.51641382E-02  5.58743739E-02 -1.78730547E-01  1.30911241E-01
 -8.46474749E-01  7.29488236E-02 -2.22636007E-01 -3.08944445E-01 -3.61287436E-02
  2.45985073E-01  1.15607351E-01  2.63475057E-01 -2.06773644E-01 -8.76040411E-02
  6.64182907E-01  8.80347571E-02 -2.67049757E-01  6.46622489E-01 -5.08194644E-02
  3.61706608E-01 -3.30164429E-01 -2.59971811E-01  6.34825786E-02  3.67760930E-02
  1.08441253E-02 -7.43874590E-02 -2.62089053E-02 -3.24572810E-01  4.21353726E-01
  1.33104754E-02 -9.75242555E-02 -1.30375571E-01  1.77053729E-02  3.61223542E-02
 -6.93760006E-02  5.02531714E-01  8.24065837E-01  8.51040295E-01 -1.05820720E-01
 -2.50004638E-02  1.84903827E-01 -8.53353388E-02  5.12811925E-02 -2.73247183E-01
 -3.43453644E-02  2.70049345E-01  7.56278078E-02 -5.57807872E-02  2.61490463E-01
  1.02759985E-01 -7.95850198E-01  5.42325220E-01  6.38143266E-01  1.26031020E-01
 -2.26254821E-02
Total SCF Density                          R   N=         496
  2.07553957E+00 -2.55038415E-01  1.01873708E+00 -3.00364528E-02  1.30925610E-01
  6.14303001E-01  6.72748808E-03 -4.06467737E-02 -1.00694731E-01  6.28421736E-01
 -3.12711998E-02  1.60089057E-01 -2.08786139E-02  8.80126643E-02  6.00367975E-01
  5.95092426E-03  9.03076210E-03  1.73629858E-02  1.12226080E-02 -7.61338967E-04
  2.11389698E+00  1.06670377E-02 -1.93552762E-01  5.02482838E-02 -3.65487632E-02
 -9.86502583E-02 -4.84865100E-01  2.12760894E+00 -1.09976964E-01  3.49681992E-01
 -2.82767906E-01 -1.12635461E-01  3.38972982E-01  6.52964598E-02 -3.59372563E-01
  1.20340975E+00 -5.30849682E-02  2.26397699E-01  1.17601006E-01  4.33611890E-01
  2.74384927E-01  8.80861684E-04 -1.00857109E-02 -3.88902436E-01  9.23391501E-01
  6.61190161E-02 -2.14163350E-01  3.11095569E-01  2.41041413E-01 -1.13766403E-02
 -3.39830686E-02  1.95103068E-01  3.77103470E-01  6.41444505E-02  1.56696507E+00
  1.71155785E-02 -4.14718430E-02 -6.06871094E-02  1.30609643E-02 -2.80916115E-02
 -2.16972940E-03  7.23153686E-03  3.79372007E-02 -9.87403236E-03  5.65810184E-03
  2.07340413E+00 -3.85926024E-02  2.49819777E-02  1.25887825E-01 -1.18561063E-02
  5.28021506E-02  6.02980207E-03 -1.20337046E-02 -1.68952363E-01  4.01667828E-02
 -3.13427469E-02 -2.40902381E-01  9.47493714E-01  7.02444369E-02 -1.85668047E-01
 -2.07065237E-01  1.21506160E-02 -1.17487024E-01 -1.77315794E-02  7.48779135E-02