 Entering Gaussian System, Link 0=g16
 Input=CH3CHO.gjf
 Output=CH3CHO.log
 Initial command:
 /share/apps/gaussian/G16B01/AVX2//g16/l1.exe "//share/home/zyzhu/Tmp/g09chk/Gau-26494.inp" -scrdir="//share/home/zyzhu/Tmp/g09chk/"
 Entering Link 1 = /share/apps/gaussian/G16B01/AVX2//g16/l1.exe PID=     26495.
  
 Copyright (c) 1988-2017, Gaussian, Inc.  All Rights Reserved.
  
 This is part of the Gaussian(R) 16 program.  It is based on
 the Gaussian(R) 09 system (copyright 2009, Gaussian, Inc.),
 the Gaussian(R) 03 system (copyright 2003, Gaussian, Inc.),
 the Gaussian(R) 98 system (copyright 1998, Gaussian, Inc.),
 the Gaussian(R) 94 system (copyright 1995, Gaussian, Inc.),
 the Gaussian 92(TM) system (copyright 1992, Gaussian, Inc.),
 the Gaussian 90(TM) system (copyright 1990, Gaussian, Inc.),
 the Gaussian 88(TM) system (copyright 1988, Gaussian, Inc.),
 the Gaussian 86(TM) system (copyright 1986, Carnegie Mellon
 University), and the Gaussian 82(TM) system (copyright 1983,
 Carnegie Mellon University). Gaussian is a federally registered
 trademark of Gaussian, Inc.
  
 This software contains proprietary and confidential information,
 including trade secrets, belonging to Gaussian, Inc.
  
 This software is provided under written license and may be
 used, copied, transmitted, or stored only in accord with that
 written license.
  
 The following legend is applicable only to US Government
 contracts under FAR:
  
                    RESTRICTED RIGHTS LEGEND
  
 Use, reproduction and disclosure by the US Government is
 subject to restrictions as set forth in subparagraphs (a)
 and (c) of the Commercial Computer Software - Restricted
 Rights clause in FAR 52.227-19.
  
 Gaussian, Inc.
 340 Quinnipiac St., Bldg. 40, Wallingford CT 06492
  
  
 ---------------------------------------------------------------
 Warning -- This program may not be used in any manner that
 competes with the business of Gaussian, Inc. or will provide
 assistance to any competitor of Gaussian, Inc.  The licensee
 of this program is prohibited from giving any competitor of
 Gaussian, Inc. access to this program.  By using this program,
 the user acknowledges that Gaussian, Inc. is engaged in the
 business of creating and licensing software in the field of
 computational chemistry and represents and warrants to the
 licensee that it is not a competitor of Gaussian, Inc. and that
 it will not use this program in any manner prohibited above.
 ---------------------------------------------------------------
  

 Cite this work as:
 Gaussian 16, Revision B.01,
 M. J. Frisch, G. W. Trucks, H. B. Schlegel, G. E. Scuseria, 
 M. A. Robb, J. R. Cheeseman, G. Scalmani, V. Barone, 
 G. A. Petersson, H. Nakatsuji, X. Li, M. Caricato, A. V. Marenich, 
 J. Bloino, B. G. Janesko, R. Gomperts, B. Mennucci, H. P. Hratchian, 
 J. V. Ortiz, A. F. Izmaylov, J. L. Sonnenberg, D. Williams-Young, 
 F. Ding, F. Lipparini, F. Egidi, J. Goings, B. Peng, A. Petrone, 
 T. Henderson, D. Ranasinghe, V. G. Zakrzewski, J. Gao, N. Rega, 
 G. Zheng, W. Liang, M. Hada, M. Ehara, K. Toyota, R. Fukuda, 
 J. Hasegawa, M. Ishida, T. Nakajima, Y. Honda, O. Kitao, H. Nakai, 
 T. Vreven, K. Throssell, J. A. Montgomery, Jr., J. E. Peralta, 
 F. Ogliaro, M. J. Bearpark, J. J. Heyd, E. N. Brothers, K. N. Kudin, 
 V. N. Staroverov, T. A. Keith, R. Kobayashi, J. Normand, 
 K. Raghavachari, A. P. Rendell, J. C. Burant, S. S. Iyengar, 
 J. Tomasi, M. Cossi, J. M. Millam, M. Klene, C. Adamo, R. Cammi, 
 J. W. Ochterski, R. L. Martin, K. Morokuma, O. Farkas, 
 J. B. Foresman, and D. J. Fox, Gaussian, Inc., Wallingford CT, 2016.
 
 ******************************************
 Gaussian 16:  ES64L-G16RevB.01 20-Dec-2017
                27-Jun-2021 
 ******************************************
 %oldchk=CH3CHO-old
 Copying data from "CH3CHO-old.chk" to current chk file "//share/home/zyzhu/Tmp/g09chk/Gau-26495.chk"
 IOpt=  2 FromEx=T IUOpen= 4 IOptOp= 5 NList=   0 IFRang= 0 IUIn= 4 IUOut= 2.
 ---------------------------------------------------------------
 #t NoSymm Freq(Anharmonic, ReadFC) Temperature=2500 IOp(7/33=3)
 ---------------------------------------------------------------
 -----
 Title
 -----
 Symbolic Z-matrix:
 Charge =  0 Multiplicity = 1
 C                    -0.85269   0.49981  -0.00029 
 C                     0.6851    0.67046   0.00034 
 O                     1.34032  -0.60232  -0.00043 
 O                    -1.34965  -0.61184   0.00014 
 H                    -1.45083   1.42565  -0.001 
 H                     0.97422   1.25352   0.88398 
 H                     0.975     1.25467  -0.88224 
 H                     0.5818   -1.24221   0.00132 
 
                    Distance matrix (angstroms):
                    1          2          3          4          5
     1  C    0.000000
     2  C    1.547228   0.000000
     3  O    2.454387   1.431532   0.000000
     4  O    1.217677   2.405093   2.689989   0.000000
     5  H    1.102239   2.265499   3.450097   2.039995   0.000000
     6  H    2.165089   1.097437   2.088149   3.108230   2.587209
     7  H    2.165204   1.097405   2.087932   3.109094   2.586594
     8  H    2.256635   1.915451   0.992379   2.031712   3.353954
                    6          7          8
     6  H    0.000000
     7  H    1.766216   0.000000
     8  H    2.676141   2.677627   0.000000
 Symmetry turned off by external request.
 Framework group  C1[X(C2H4O2)]
 Deg. of freedom    18
 Rotational constants (GHZ):          17.7900617           6.4660455           4.8865293
 GetPCM: File not found, return IValue=0.
 Electric field and nuclear coordinate derivatives read from checkpoint file.
 FrcOut:
 IF    =        49 IFX   =        73 IFXYZ =        97
 IFFX  =       121 IFFFX =       421 IFLen =        24
 IFFLen=       300 IFFFLn=     10800 IEDerv=     11221
 LEDerv=      1205 IFroze=     65980 ICStrt=     66077
 Hessian entering l716: 
                1             2             3             4             5 
      1  0.790951D+00
      2  0.175536D+00  0.133473D+01
      3  0.138381D-03 -0.512239D-03  0.227733D+00
      4 -0.267191D+00 -0.413721D-02 -0.741349D-04  0.670539D+00
      5 -0.612610D-02 -0.117752D+00  0.000000D+00  0.421437D-01  0.842263D+00
      6 -0.945371D-04  0.245103D-04 -0.112325D+00 -0.217180D-03 -0.157620D-03
      7 -0.320836D-01  0.488610D-01  0.212286D-04 -0.175241D+00  0.519494D-01
      8  0.212887D-01 -0.100723D-01  0.112016D-04  0.151806D+00 -0.342632D+00
      9  0.139177D-05  0.177707D-05  0.255020D-02  0.178999D-03 -0.206312D-04
     10 -0.267689D+00 -0.341033D+00  0.109422D-03 -0.383194D-01 -0.482413D-01
     11 -0.341567D+00 -0.895288D+00  0.323381D-03 -0.301090D-01 -0.171385D-01
     12  0.114478D-03  0.327001D-03 -0.678281D-01 -0.135704D-04 -0.577921D-05
     13 -0.201122D+00  0.159730D+00 -0.140015D-03 -0.752680D-02  0.313393D-01
     14  0.159581D+00 -0.306502D+00  0.184435D-03 -0.844207D-02  0.902629D-02
     15 -0.138304D-03  0.181598D-03 -0.664213D-01 -0.688372D-05  0.310177D-04
     16 -0.896116D-02 -0.247186D-01 -0.369812D-01 -0.100305D+00 -0.550714D-01
     17 -0.356994D-02 -0.123261D-02 -0.250232D-02 -0.524769D-01 -0.165204D+00
     18  0.243677D-02  0.176351D-02  0.639338D-02 -0.806911D-01 -0.144472D+00
     19 -0.897119D-02 -0.247564D-01  0.369362D-01 -0.100469D+00 -0.553047D-01
     20 -0.355319D-02 -0.124141D-02  0.248384D-02 -0.526978D-01 -0.165636D+00
     21 -0.245863D-02 -0.179824D-02  0.642257D-02  0.808356D-01  0.144698D+00
     22 -0.493244D-02  0.105172D-01 -0.993050D-05  0.185143D-01  0.393111D-01
     23 -0.159000D-02 -0.264023D-02  0.108297D-04 -0.460871D-01 -0.429272D-01
     24  0.000000D+00  0.120736D-04  0.347557D-02 -0.117509D-04 -0.734681D-04
                6             7             8             9            10 
      6  0.767870D+00
      7  0.245862D-03  0.599950D+00
      8 -0.208659D-03  0.126488D+00  0.699369D+00
      9 -0.714741D-01 -0.114224D-02 -0.459730D-03  0.422929D-01
     10  0.252124D-04  0.448441D-02 -0.136175D-01 -0.167921D-04  0.275364D+00
     11  0.660299D-05  0.389051D-02 -0.941052D-03  0.569708D-05  0.390556D+00
     12  0.274331D-01 -0.218837D-05  0.000000D+00  0.552143D-03 -0.126325D-03
     13 -0.183359D-04 -0.693521D-02 -0.531361D-03 -0.623610D-05  0.258020D-01
     14  0.524155D-05 -0.287168D-02  0.963606D-03  0.000000D+00  0.163764D-01
     15  0.195629D-01 -0.451783D-05 -0.799011D-05  0.122439D-02 -0.607069D-05
     16 -0.862770D-01  0.952128D-02  0.174034D-01  0.147775D-01 -0.377019D-02
     17 -0.150880D+00 -0.591092D-02 -0.307549D-01 -0.265469D-01  0.627392D-03
     18 -0.313365D+00  0.594225D-02 -0.284626D-02  0.109426D-01  0.203616D-02
     19  0.864039D-01  0.956643D-02  0.173892D-01 -0.147529D-01 -0.377781D-02
     20  0.151070D+00 -0.601794D-02 -0.307575D-01  0.264811D-01  0.630459D-03
     21 -0.312899D+00 -0.594459D-02  0.278583D-02  0.109722D-01 -0.204055D-02
     22 -0.679357D-04 -0.409262D+00 -0.320226D+00  0.960272D-03  0.790690D-02
     23  0.140093D-03 -0.216388D+00 -0.285175D+00  0.538919D-03 -0.529869D-02
     24 -0.480292D-02  0.884192D-03  0.726019D-03  0.293965D-02  0.189491D-04
               11            12            13            14            15 
     11  0.953045D+00
     12 -0.357773D-03  0.260507D-01
     13 -0.232269D-01  0.159025D-04  0.187245D+00
     14 -0.470000D-01  0.425771D-04 -0.165226D+00  0.343682D+00
     15  0.308488D-04  0.207990D-01  0.145780D-03 -0.231209D-03  0.251316D-01
     16  0.819139D-03  0.390279D-02  0.150432D-02  0.802085D-03  0.376630D-02
     17  0.209134D-02 -0.625778D-04 -0.323192D-03 -0.260312D-04  0.284236D-03
     18  0.199184D-02 -0.132566D-02  0.989798D-04  0.155549D-03 -0.429795D-03
     19  0.815421D-03 -0.390070D-02  0.151577D-02  0.797355D-03 -0.375759D-02
     20  0.209385D-02  0.652301D-04 -0.318200D-03 -0.228970D-04 -0.287487D-03
     21 -0.198869D-02 -0.132739D-02 -0.976798D-04 -0.156172D-03 -0.431228D-03
     22 -0.117861D-02  0.961727D-05 -0.483066D-03 -0.101685D-02  0.128627D-05
     23  0.313696D-02 -0.826755D-05 -0.144397D-02 -0.121388D-03 -0.101428D-05
     24 -0.119142D-04 -0.435381D-02  0.160373D-05  0.000000D+00  0.564324D-03
               16            17            18            19            20 
     16  0.972792D-01
     17  0.516709D-01  0.183989D+00
     18  0.848322D-01  0.162643D+00  0.321605D+00
     19  0.788485D-02  0.691385D-02 -0.141136D-01  0.974210D-01
     20  0.691091D-02  0.147273D-01 -0.211340D-01  0.519413D-01  0.184461D+00
     21  0.141460D-01  0.211905D-01 -0.228590D-01 -0.849811D-01 -0.162813D+00
     22 -0.315351D-02  0.306874D-02 -0.541623D-03 -0.316964D-02  0.310440D-02
     23  0.218352D-02 -0.359000D-02  0.189899D-02  0.220392D-02 -0.362456D-02
     24  0.183346D-02 -0.412535D-02 -0.962081D-03 -0.183428D-02  0.413473D-02
               21            22            23            24 
     21  0.321082D+00
     22  0.540940D-03  0.394579D+00
     23 -0.191767D-02  0.266420D+00  0.334942D+00
     24 -0.960456D-03 -0.892627D-03 -0.661884D-03  0.409973D-02
 Dipole        =-3.36321355D-01 6.69819896D-01 9.51186166D-04
 DipoleDeriv   = 7.06192500D-01-4.47861611D-03 3.58938271D-04
                -5.95124364D-02 2.67186488D-01-1.32789402D-04
                 2.59938128D-04-1.34479740D-04 9.32061109D-02
                -1.11832134D-03-7.92480137D-03 1.81836398D-05
                 4.16247829D-02 2.38631657D-01 2.48752274D-04
                 1.49127348D-04-6.25327461D-05 2.82939295D-01
                -8.27986524D-02 1.03254783D-01-7.53838988D-04
                 5.04344081D-02-3.00676407D-01-4.94790102D-04
                -1.10110422D-03-1.88037013D-04-4.60723699D-01
                -5.52484085D-01 2.63809252D-02-1.44588525D-04
                 2.62352656D-03-3.65493737D-01-1.02467148D-06
                -1.40236666D-04 1.09106209D-04-2.06545966D-01
                -1.26535436D-01 4.63916955D-02-7.86019111D-05
                 2.27230311D-02 5.87048771D-02 2.15184059D-05
                -5.03299587D-05 5.91423992D-05 6.38418343D-02
                -7.67827422D-03-3.10985576D-03-1.23129766D-02
                 2.61241462D-02-1.26664518D-02-1.94295101D-04
                 1.41285881D-03-2.62277283D-02-1.90936429D-02
                -7.38817511D-03-3.10867168D-03 1.22813403D-02
                 2.60660147D-02-1.25341101D-02 2.26783130D-04
                -1.36091691D-03 2.61341680D-02-1.88674322D-02
                 7.18104440D-02-1.57405459D-01 6.31543828D-04
                -1.10083473D-01 1.26847684D-01 3.25845466D-04
                 8.30663465D-04 3.10361131D-04 2.65243499D-01
 Polarizability= 1.45176156D+01 2.41226457D+00 1.95197141D+01
                -1.90293481D-03-5.69169494D-03 7.77011479D+00
 HyperPolar    =-1.32421077D+01 1.46481195D-01-6.02324408D+00
                 1.00368534D+01-9.88044642D-03-1.13425587D-03
                 8.09829954D-03 1.96664900D+00 5.41573378D+00
                 6.68272532D-03
 Quadrupole    =-2.78833071D+00 1.63127355D+00 1.15705716D+00
                -3.79489954D-01 2.15205631D-03-2.45344207D-03
 Read normal modes, IRwNMS= 20765 IRotNM= 0 NVibU=    18.
 Normal modes: 
                 1             2             3             4             5 
      1  -0.177852D-04  0.360784D-01  0.856832D-04 -0.262221D+00  0.699977D-03
      2   0.197035D-03  0.825813D-01  0.218451D-03  0.268437D+00 -0.714155D-03
      3   0.157215D+00 -0.196441D-02  0.688404D-01 -0.102325D-02 -0.946879D-01
      4   0.559547D-04  0.120405D-01  0.514535D-04 -0.256894D+00  0.661237D-03
      5   0.265551D-03  0.127250D+00  0.322757D-03 -0.199876D+00  0.481989D-03
      6  -0.128967D+00  0.121991D-02 -0.232667D-01 -0.105011D-02 -0.850297D-01
      7  -0.555490D-03 -0.415387D+00 -0.113874D-02  0.167217D+00 -0.411115D-03
      8  -0.197854D-03 -0.784543D-01 -0.219304D-03 -0.953221D-01  0.258902D-03
      9   0.119360D+00 -0.364279D-03 -0.261166D-01  0.345784D-03  0.265982D-01
     10   0.694884D-03  0.422909D+00  0.100839D-02  0.245540D+00 -0.610979D-03
     11  -0.227394D-03 -0.953832D-01 -0.254386D-03  0.835432D-01 -0.207127D-03
     12  -0.100774D+00  0.157070D-02 -0.723072D-01  0.452411D-03  0.375750D-01
     13  -0.548487D-03 -0.226966D+00 -0.603398D-03 -0.390673D+00  0.689545D-03
     14   0.136304D-03 -0.949391D-01 -0.820043D-04  0.189637D+00 -0.969855D-04
     15   0.548751D+00 -0.730104D-02  0.269664D+00  0.773068D-02  0.734750D+00
     16   0.175326D+00  0.105732D+00  0.434139D-01 -0.189064D+00 -0.377345D+00
     17   0.202347D+00  0.586518D-01  0.913256D-01 -0.225399D+00 -0.209167D+00
     18  -0.327316D+00  0.141848D-01 -0.935680D-01 -0.162533D-01  0.184835D+00
     19  -0.174972D+00  0.109322D+00 -0.425327D-01 -0.180613D+00  0.377895D+00
     20  -0.201530D+00  0.636004D-01 -0.910839D-01 -0.220581D+00  0.209979D+00
     21  -0.327723D+00 -0.732033D-02 -0.938007D-01  0.203451D-01  0.185343D+00
     22  -0.247216D-02 -0.680412D+00  0.158240D-03  0.390617D+00 -0.122606D-02
     23   0.287737D-03  0.233182D+00  0.914053D-03 -0.373071D+00  0.122800D-02
     24  -0.525035D+00 -0.984561D-02  0.937125D+00  0.196755D-03  0.164647D-01
                 6             7             8             9            10 
      1   0.265256D+00 -0.164723D-03 -0.593544D-01 -0.127669D-03 -0.110136D+00
      2  -0.699889D-01  0.875411D-05  0.225995D-01  0.229085D-04  0.393447D-01
      3  -0.166021D-04 -0.175420D+00  0.306339D-03 -0.709187D-01  0.213548D-04
      4  -0.225478D+00  0.147342D-03  0.940667D-01  0.166560D-03  0.109184D+00
      5  -0.147773D+00 -0.100637D-03 -0.225675D+00 -0.355812D-03 -0.821612D-01
      6   0.142924D-04  0.180474D+00 -0.283493D-03 -0.169982D-01  0.135837D-03
      7  -0.706445D-01 -0.778380D-04 -0.996150D-01 -0.327454D-04  0.173483D-01
      8   0.945882D-01  0.111099D-03  0.227772D+00  0.227907D-03  0.171295D-01
      9   0.143957D-04 -0.428481D-01  0.155493D-03  0.342691D-01 -0.131567D-03
     10   0.496693D-01  0.109920D-04  0.207190D-02  0.247320D-04  0.113603D-01
     11   0.724836D-01 -0.793279D-05 -0.210852D-01 -0.429779D-05 -0.538431D-01
     12   0.253847D-04  0.349140D-01 -0.460612D-04  0.993902D-02  0.189991D-04
     13   0.625994D+00 -0.671913D-03 -0.199198D-01  0.895460D-04  0.514450D+00
     14   0.139313D+00  0.269538D-03  0.496302D-01  0.347331D-03  0.450698D+00
     15   0.612910D-03  0.554571D+00 -0.107153D-02  0.167407D+00 -0.282914D-03
     16  -0.440887D+00  0.195795D+00  0.483710D+00  0.566060D+00 -0.321585D+00
     17  -0.423176D-01  0.479686D+00 -0.425136D+00 -0.396763D+00  0.121163D+00
     18  -0.761405D-02 -0.203494D+00  0.879208D-02  0.529590D-01  0.685318D-02
     19  -0.441557D+00 -0.194530D+00  0.486663D+00 -0.565819D+00 -0.320272D+00
     20  -0.433927D-01 -0.479644D+00 -0.426298D+00  0.395736D+00  0.119720D+00
     21   0.669945D-02 -0.204307D+00 -0.903183D-02  0.528649D-01 -0.716281D-02
     22   0.115703D+00  0.675261D-03  0.184313D+00 -0.666569D-03 -0.316885D+00
     23  -0.112297D+00 -0.854224D-03 -0.604767D-01  0.109430D-02  0.400900D+00
     24  -0.302156D-03 -0.810275D-01 -0.697503D-03  0.719656D-01  0.507422D-03
                11            12            13            14            15 
      1  -0.320057D-01  0.305002D-01  0.779792D-02  0.345299D+00 -0.725374D-02
      2   0.184057D-01 -0.123072D-01  0.159022D-02  0.569388D+00  0.139228D-01
      3  -0.851599D-04  0.172901D-04 -0.438403D-05 -0.167611D-03 -0.967240D-05
      4  -0.908573D-01 -0.120481D+00 -0.395997D-01 -0.326048D-01 -0.330101D-01
      5   0.108008D+00  0.126981D-02 -0.930191D-01 -0.468498D-01 -0.626026D-01
      6  -0.733290D-04  0.167936D-03 -0.506754D-04  0.817641D-05 -0.225521D-03
      7  -0.279481D-02  0.753214D-01  0.396237D-02  0.821973D-02  0.171509D-02
      8  -0.303473D-01 -0.695747D-02  0.368531D-02  0.472864D-02 -0.227740D-03
      9   0.598344D-04 -0.155221D-03 -0.206861D-04 -0.322498D-05 -0.229443D-05
     10  -0.290191D-02 -0.406936D-02 -0.111387D-02 -0.187411D+00  0.375730D-03
     11  -0.719286D-01  0.842318D-02  0.243202D-02 -0.400107D+00  0.209623D-03
     12   0.477870D-04 -0.819579D-05 -0.150753D-05  0.149037D-03  0.000000D+00
     13   0.633055D+00 -0.111097D-01 -0.557154D-01 -0.538791D+00  0.958848D-01
     14   0.445439D+00 -0.518280D-01 -0.439691D-01  0.862751D-01 -0.155263D+00
     15   0.135443D-03  0.697129D-04 -0.871667D-05 -0.284835D-03  0.107770D-03
     16   0.365680D+00  0.238078D+00  0.230213D+00 -0.169162D+00  0.180936D+00
     17  -0.383809D-01 -0.255657D+00  0.472618D+00 -0.228929D-01  0.364246D+00
     18  -0.468416D-01  0.342824D-01 -0.457535D+00  0.290885D-01  0.563042D+00
     19   0.365100D+00  0.238779D+00  0.229780D+00 -0.169509D+00  0.180707D+00
     20  -0.376696D-01 -0.257020D+00  0.471933D+00 -0.229384D-01  0.363611D+00
     21   0.471973D-01 -0.346262D-01  0.458398D+00 -0.293059D-01 -0.560324D+00
     22   0.189483D+00 -0.525181D+00 -0.708269D-01 -0.183350D-02 -0.112955D-01
     23  -0.251380D+00  0.672664D+00  0.909600D-01  0.127337D-01  0.731565D-02
     24  -0.312018D-03  0.662175D-03  0.153248D-03  0.864395D-04  0.222107D-04
                16            17            18 
      1   0.449319D-01 -0.956100D-05 -0.555739D-03
      2  -0.749722D-01  0.798405D-05  0.736760D-03
      3   0.568216D-04  0.310941D-03 -0.113449D-05
      4  -0.930081D-02  0.110805D-03 -0.207127D-02
      5  -0.119300D-01  0.195704D-03  0.167245D-02
      6  -0.564325D-04 -0.947365D-01  0.774949D-05
      7  -0.260985D-03 -0.476279D-05 -0.451521D-01
      8   0.130155D-03 -0.376676D-05 -0.436385D-01
      9   0.000000D+00  0.616075D-03  0.107321D-03
     10   0.216754D-02 -0.238042D-05  0.263763D-03
     11   0.405539D-02 -0.228233D-05  0.911026D-04
     12  -0.169782D-05 -0.331507D-03  0.000000D+00
     13  -0.527320D+00  0.678689D-04 -0.401695D-03
     14   0.824272D+00 -0.991510D-04 -0.296717D-02
     15  -0.633819D-03 -0.144955D-02  0.169062D-05
     16   0.379414D-01  0.192731D+00 -0.286879D-02
     17   0.687136D-01  0.373664D+00  0.339070D-02
     18   0.105867D+00  0.562832D+00  0.275927D-02
     19   0.378522D-01 -0.193950D+00 -0.285170D-02
     20   0.685022D-01 -0.375871D+00  0.341254D-02
     21  -0.105208D+00  0.564395D+00 -0.279482D-02
     22  -0.298469D-02  0.591803D-04  0.749812D+00
     23   0.681309D-02 -0.226301D-04  0.658607D+00
     24  -0.768450D-05 -0.598488D-02 -0.176164D-02
 Recovering previously computed normal modes.
 NorSel:  MapVib=      1      2      3      4      5      6      7      8      9     10
 NorSel:  MapVib=     11     12     13     14     15     16     17     18
 Harmonic frequencies (cm**-1), IR intensities (KM/Mole), Raman scattering
 activities (A**4/AMU), depolarization ratios for plane and unpolarized
 incident light, reduced masses (AMU), force constants (mDyne/A),
 and normal coordinates:
                      1                      2                      3
                      A                      A                      A
 Frequencies --    118.8390               274.3806               341.3904
 Red. masses --      1.8281                 6.7718                 1.1545
 Frc consts  --      0.0152                 0.3004                 0.0793
 IR Inten    --     12.3547                12.7939                73.5092
  Atom  AN      X      Y      Z        X      Y      Z        X      Y      Z
     1   6    -0.00   0.00   0.16     0.04   0.08  -0.00     0.00   0.00   0.07
     2   6     0.00   0.00  -0.13     0.01   0.13   0.00     0.00   0.00  -0.02
     3   8    -0.00  -0.00   0.12    -0.42  -0.08  -0.00    -0.00  -0.00  -0.03
     4   8     0.00  -0.00  -0.10     0.42  -0.10   0.00     0.00  -0.00  -0.07
     5   1    -0.00   0.00   0.55    -0.23  -0.09  -0.01    -0.00  -0.00   0.27
     6   1     0.18   0.20  -0.33     0.11   0.06   0.01     0.04   0.09  -0.09
     7   1    -0.17  -0.20  -0.33     0.11   0.06  -0.01    -0.04  -0.09  -0.09
     8   1    -0.00   0.00  -0.53    -0.68   0.23  -0.01     0.00   0.00   0.94
                      4                      5                      6
                      A                      A                      A
 Frequencies --    818.4370               861.4248              1034.9186
 Red. masses --      5.2837                 1.2176                 2.9586
 Frc consts  --      2.0853                 0.5324                 1.8670
 IR Inten    --     12.1104                 0.0008                 8.2411
  Atom  AN      X      Y      Z        X      Y      Z        X      Y      Z
     1   6    -0.26   0.27  -0.00     0.00  -0.00  -0.09     0.27  -0.07  -0.00
     2   6    -0.26  -0.20  -0.00     0.00   0.00  -0.09    -0.23  -0.15   0.00
     3   8     0.17  -0.10   0.00    -0.00   0.00   0.03    -0.07   0.09   0.00
     4   8     0.25   0.08   0.00    -0.00  -0.00   0.04     0.05   0.07   0.00
     5   1    -0.39   0.19   0.01     0.00  -0.00   0.73     0.63   0.14   0.00
     6   1    -0.19  -0.23  -0.02    -0.38  -0.21   0.18    -0.44  -0.04  -0.01
     7   1    -0.18  -0.22   0.02     0.38   0.21   0.19    -0.44  -0.04   0.01
     8   1     0.39  -0.37   0.00    -0.00   0.00   0.02     0.12  -0.11  -0.00
                      7                      8                      9
                      A                      A                      A
 Frequencies --   1223.5237              1314.1432              1419.2646
 Red. masses --      1.7499                 2.6422                 1.0854
 Frc consts  --      1.5434                 2.6885                 1.2881
 IR Inten    --      2.2744                 8.5422                 0.2090
  Atom  AN      X      Y      Z        X      Y      Z        X      Y      Z
     1   6    -0.00   0.00  -0.18    -0.06   0.02   0.00    -0.00   0.00  -0.07
     2   6     0.00  -0.00   0.18     0.09  -0.23  -0.00     0.00  -0.00  -0.02
     3   8    -0.00   0.00  -0.04    -0.10   0.23   0.00    -0.00   0.00   0.03
     4   8     0.00  -0.00   0.03     0.00  -0.02  -0.00     0.00  -0.00   0.01
     5   1    -0.00   0.00   0.55    -0.02   0.05  -0.00     0.00   0.00   0.17
     6   1     0.20   0.48  -0.20     0.48  -0.43   0.01     0.57  -0.40   0.05
     7   1    -0.19  -0.48  -0.20     0.49  -0.43  -0.01    -0.57   0.40   0.05
     8   1     0.00  -0.00  -0.08     0.18  -0.06  -0.00    -0.00   0.00   0.07
                     10                     11                     12
                      A                      A                      A
 Frequencies --   1545.1175              1594.7535              1761.9804
 Red. masses --      1.4177                 1.3334                 1.2664
 Frc consts  --      1.9942                 1.9980                 2.3164
 IR Inten    --     44.7591                 5.0071                32.1676
  Atom  AN      X      Y      Z        X      Y      Z        X      Y      Z
     1   6    -0.11   0.04   0.00    -0.03   0.02  -0.00     0.03  -0.01   0.00
     2   6     0.11  -0.08   0.00    -0.09   0.11  -0.00    -0.12   0.00   0.00
     3   8     0.02   0.02  -0.00    -0.00  -0.03   0.00     0.08  -0.01  -0.00
     4   8     0.01  -0.05   0.00    -0.00  -0.07   0.00    -0.00   0.01  -0.00
     5   1     0.51   0.45  -0.00     0.63   0.45   0.00    -0.01  -0.05   0.00
     6   1    -0.32   0.12   0.01     0.37  -0.04  -0.05     0.24  -0.26   0.03
     7   1    -0.32   0.12  -0.01     0.37  -0.04   0.05     0.24  -0.26  -0.03
     8   1    -0.32   0.40   0.00     0.19  -0.25  -0.00    -0.53   0.67   0.00
                     13                     14                     15
                      A                      A                      A
 Frequencies --   1816.1500              2104.0490              3546.1656
 Red. masses --      1.1214                 8.8449                 1.0656
 Frc consts  --      2.1793                23.0704                 7.8955
 IR Inten    --      0.1676                23.5197                 2.5767
  Atom  AN      X      Y      Z        X      Y      Z        X      Y      Z
     1   6     0.01   0.00  -0.00     0.35   0.57  -0.00    -0.01   0.01  -0.00
     2   6    -0.04  -0.09  -0.00    -0.03  -0.05   0.00    -0.03  -0.06  -0.00
     3   8     0.00   0.00  -0.00     0.01   0.00  -0.00     0.00  -0.00  -0.00
     4   8    -0.00   0.00  -0.00    -0.19  -0.40   0.00     0.00   0.00  -0.00
     5   1    -0.06  -0.04  -0.00    -0.54   0.09  -0.00     0.10  -0.16   0.00
     6   1     0.23   0.47  -0.46    -0.17  -0.02   0.03     0.18   0.36   0.56
     7   1     0.23   0.47   0.46    -0.17  -0.02  -0.03     0.18   0.36  -0.56
     8   1    -0.07   0.09   0.00    -0.00   0.01   0.00    -0.01   0.01   0.00
                     16                     17                     18
                      A                      A                      A
 Frequencies --   3569.1368              3647.4129              4197.4993
 Red. masses --      1.0946                 1.1065                 1.0670
 Frc consts  --      8.2157                 8.6730                11.0764
 IR Inten    --     13.3700                 2.6632                 0.8874
  Atom  AN      X      Y      Z        X      Y      Z        X      Y      Z
     1   6     0.04  -0.07   0.00    -0.00   0.00   0.00    -0.00   0.00  -0.00
     2   6    -0.01  -0.01  -0.00     0.00   0.00  -0.09    -0.00   0.00   0.00
     3   8    -0.00   0.00   0.00    -0.00  -0.00   0.00    -0.05  -0.04   0.00
     4   8     0.00   0.00  -0.00    -0.00  -0.00  -0.00     0.00   0.00   0.00
     5   1    -0.53   0.82  -0.00     0.00  -0.00  -0.00    -0.00  -0.00   0.00
     6   1     0.04   0.07   0.11     0.19   0.37   0.56    -0.00   0.00   0.00
     7   1     0.04   0.07  -0.11    -0.19  -0.38   0.56    -0.00   0.00  -0.00
     8   1    -0.00   0.01  -0.00     0.00  -0.00  -0.01     0.75   0.66  -0.00

 -------------------
 - Thermochemistry -
 -------------------
 Temperature  2500.000 Kelvin.  Pressure   1.00000 Atm.
 Atom     1 has atomic number  6 and mass  12.00000
 Atom     2 has atomic number  6 and mass  12.00000
 Atom     3 has atomic number  8 and mass  15.99491
 Atom     4 has atomic number  8 and mass  15.99491
 Atom     5 has atomic number  1 and mass   1.00783
 Atom     6 has atomic number  1 and mass   1.00783
 Atom     7 has atomic number  1 and mass   1.00783
 Atom     8 has atomic number  1 and mass   1.00783
 Molecular mass:    60.02113 amu.
 Principal axes and moments of inertia in atomic units:
                           1         2         3
     Eigenvalues --   101.44660 279.11050 369.32987
           X            0.99998  -0.00595   0.00004
           Y            0.00595   0.99998  -0.00007
           Z           -0.00004   0.00007   1.00000
 This molecule is an asymmetric top.
 Rotational symmetry number  1.
 Rotational temperatures (Kelvin)      0.85379     0.31032     0.23452
 Rotational constants (GHZ):          17.79006     6.46605     4.88653
 Zero-point vibrational energy     186549.2 (Joules/Mol)
                                   44.58632 (Kcal/Mol)
 Warning -- explicit consideration of  18 degrees of freedom as
           vibrations may cause significant error
 Vibrational temperatures:    170.98   394.77   491.18  1177.55  1239.40
          (Kelvin)           1489.02  1760.38  1890.76  2042.01  2223.08
                             2294.49  2535.10  2613.03  3027.26  5102.14
                             5135.19  5247.81  6039.27
 
 Zero-point correction=                           0.071053 (Hartree/Particle)
 Thermal correction to Energy=                    0.182774
 Thermal correction to Enthalpy=                  0.190691
 Thermal correction to Gibbs Free Energy=        -0.320801
 Sum of electronic and zero-point Energies=           -224.700932
 Sum of electronic and thermal Energies=              -224.589212
 Sum of electronic and thermal Enthalpies=            -224.581295
 Sum of electronic and thermal Free Energies=         -225.092787
 
                     E (Thermal)             CV                S
                      KCal/Mol        Cal/Mol-Kelvin    Cal/Mol-Kelvin
 Total                  114.692             38.016            128.386
 Electronic               0.000              0.000              0.000
 Translational            7.452              2.981             48.761
 Rotational               7.452              2.981             30.201
 Vibrational             99.788             32.055             49.425
 Vibration     1          4.970              1.986              7.318
 Vibration     2          4.978              1.983              5.657
 Vibration     3          4.984              1.981              5.224
 Vibration     4          5.060              1.951              3.502
 Vibration     5          5.069              1.947              3.402
 Vibration     6          5.114              1.929              3.046
 Vibration     7          5.172              1.907              2.725
 Vibration     8          5.203              1.895              2.589
 Vibration     9          5.241              1.880              2.444
 Vibration    10          5.291              1.861              2.285
 Vibration    11          5.312              1.853              2.226
 Vibration    12          5.387              1.825              2.043
 Vibration    13          5.412              1.816              1.987
 Vibration    14          5.561              1.761              1.724
 Vibration    15          6.583              1.420              0.882
 Vibration    16          6.603              1.414              0.873
 Vibration    17          6.671              1.394              0.843
 Vibration    18          7.177              1.249              0.657
                       Q            Log10(Q)             Ln(Q)
 Total Bot       0.396099D+18         17.597804         40.520441
 Total V=0       0.312939D+22         21.495460         49.495125
 Vib (Bot)       0.119760D+03          2.078314          4.785494
 Vib (Bot)    1  0.146185D+02          1.164903          2.682288
 Vib (Bot)    2  0.632619D+01          0.801142          1.844697
 Vib (Bot)    3  0.508156D+01          0.705997          1.625618
 Vib (Bot)    4  0.210356D+01          0.322954          0.743629
 Vib (Bot)    5  0.199660D+01          0.300291          0.691445
 Vib (Bot)    6  0.165440D+01          0.218640          0.503437
 Vib (Bot)    7  0.139123D+01          0.143399          0.330188
 Vib (Bot)    8  0.129123D+01          0.111002          0.255592
 Vib (Bot)    9  0.119090D+01          0.075877          0.174713
 Vib (Bot)   10  0.108835D+01          0.036769          0.084665
 Vib (Bot)   11  0.105224D+01          0.022116          0.050923
 Vib (Bot)   12  0.945138D+00         -0.024505         -0.056425
 Vib (Bot)   13  0.914540D+00         -0.038797         -0.089334
 Vib (Bot)   14  0.777453D+00         -0.109326         -0.251732
 Vib (Bot)   15  0.414260D+00         -0.382727         -0.881261
 Vib (Bot)   16  0.410725D+00         -0.386448         -0.889830
 Vib (Bot)   17  0.398993D+00         -0.399035         -0.918812
 Vib (Bot)   18  0.328143D+00         -0.483937         -1.114307
 Vib (V=0)       0.946170D+06          5.975969         13.760178
 Vib (V=0)    1  0.151270D+02          1.179754          2.716484
 Vib (V=0)    2  0.684591D+01          0.835431          1.923652
 Vib (V=0)    3  0.560610D+01          0.748661          1.723855
 Vib (V=0)    4  0.266216D+01          0.425235          0.979139
 Vib (V=0)    5  0.255825D+01          0.407944          0.939325
 Vib (V=0)    6  0.222830D+01          0.347974          0.801240
 Vib (V=0)    7  0.197835D+01          0.296303          0.682263
 Vib (V=0)    8  0.188465D+01          0.275231          0.633744
 Vib (V=0)    9  0.179161D+01          0.253243          0.583114
 Vib (V=0)   10  0.169771D+01          0.229864          0.529280
 Vib (V=0)   11  0.166500D+01          0.221413          0.509822
 Vib (V=0)   12  0.156925D+01          0.195691          0.450595
 Vib (V=0)   13  0.154230D+01          0.188168          0.433273
 Vib (V=0)   14  0.142436D+01          0.153618          0.353720
 Vib (V=0)   15  0.114932D+01          0.060440          0.139167
 Vib (V=0)   16  0.114707D+01          0.059589          0.137208
 Vib (V=0)   17  0.113968D+01          0.056784          0.130751
 Vib (V=0)   18  0.109806D+01          0.040627          0.093546
 Electronic      0.100000D+01          0.000000          0.000000
 Translational   0.372112D+10          9.570673         22.037289
 Rotational      0.888827D+06          5.948817         13.697658
 After rot to inp orien Dipole Moment 
                 1 
      1  -0.336321D+00
      2   0.669820D+00
      3   0.951186D-03
 After rot to inp orien Dipole Derivatives 
                 1             2             3             4             5 
      1   0.706193D+00 -0.595124D-01  0.259938D-03 -0.111832D-02  0.416248D-01
      2  -0.447862D-02  0.267186D+00 -0.134480D-03 -0.792480D-02  0.238632D+00
      3   0.358938D-03 -0.132789D-03  0.932061D-01  0.181836D-04  0.248752D-03
                 6             7             8             9            10 
      1   0.149127D-03 -0.827987D-01  0.504344D-01 -0.110110D-02 -0.552484D+00
      2  -0.625327D-04  0.103255D+00 -0.300676D+00 -0.188037D-03  0.263809D-01
      3   0.282939D+00 -0.753839D-03 -0.494790D-03 -0.460724D+00 -0.144589D-03
                11            12            13            14            15 
      1   0.262353D-02 -0.140237D-03 -0.126535D+00  0.227230D-01 -0.503300D-04
      2  -0.365494D+00  0.109106D-03  0.463917D-01  0.587049D-01  0.591424D-04
      3  -0.102467D-05 -0.206546D+00 -0.786019D-04  0.215184D-04  0.638418D-01
                16            17            18            19            20 
      1  -0.767827D-02  0.261241D-01  0.141286D-02 -0.738818D-02  0.260660D-01
      2  -0.310986D-02 -0.126665D-01 -0.262277D-01 -0.310867D-02 -0.125341D-01
      3  -0.123130D-01 -0.194295D-03 -0.190936D-01  0.122813D-01  0.226783D-03
                21            22            23            24 
      1  -0.136092D-02  0.718104D-01 -0.110083D+00  0.830663D-03
      2   0.261342D-01 -0.157405D+00  0.126848D+00  0.310361D-03
      3  -0.188674D-01  0.631544D-03  0.325845D-03  0.265243D+00
 After rot to inp orien Polarizability 
                 1 
      1   0.145176D+02
      2   0.241226D+01
      3   0.195197D+02
      4  -0.190293D-02
      5  -0.569169D-02
      6   0.777011D+01
 After rot to inp orien HyperPolarizability 
                 1 
      1  -0.132421D+02
      2   0.146481D+00
      3  -0.602324D+01
      4   0.100369D+02
      5  -0.988045D-02
      6  -0.113426D-02
      7   0.809830D-02
      8   0.196665D+01
      9   0.541573D+01
     10   0.668273D-02
 After rot to inp orien Quadrupole Moment 
                 1 
      1  -0.278833D+01
      2   0.163127D+01
      3   0.115706D+01
      4  -0.379490D+00
      5   0.215206D-02
      6  -0.245344D-02
 After rot to inp orien Numerical derivative of Dipole Moment 
                 1             2             3             4             5 
      1  -0.809698D-03  0.860759D-01  0.351524D-03  0.108464D+00  0.594240D-03
      2   0.319558D-03 -0.755848D-01  0.504013D-03  0.256523D-01  0.279224D-03
      3  -0.112571D+00  0.121980D-02  0.274596D+00  0.905832D-04  0.657546D-03
                 6             7             8             9            10 
      1   0.685873D-01  0.000000D+00 -0.247225D-01 -0.479399D-03 -0.169024D+00
      2  -0.612312D-01 -0.248626D-03 -0.902830D-01  0.204523D-03  0.131694D+00
      3   0.149994D-04  0.483009D-01 -0.230737D-03 -0.146341D-01  0.514505D-04
                11            12            13            14            15 
      1  -0.478975D-01 -0.979866D-01  0.122085D-01  0.127819D+00 -0.807008D-02
      2   0.533099D-01  0.152955D+00  0.477637D-02  0.882502D-01 -0.507732D-01
      3  -0.112276D-03  0.123379D-03  0.825439D-04  0.209319D-04 -0.255464D-03
                16            17            18            19            20 
      1   0.116932D+00 -0.731846D-04 -0.168636D-01  0.642141D-01 -0.206630D-01
      2  -0.643092D-02  0.788558D-05 -0.250165D-01  0.191329D-01  0.638616D-02
      3  -0.685352D-05 -0.522665D-01  0.222231D-03 -0.712279D-04 -0.514466D-04
                21            22            23            24            25 
      1   0.176389D+00  0.122357D-01  0.890220D-01  0.336072D-01  0.364594D-01
      2   0.746318D-01 -0.101321D-01 -0.304208D-01  0.105085D-01 -0.115620D-01
      3  -0.297906D-03  0.271615D-03 -0.252949D-03 -0.610857D-05  0.121748D-03
                26            27            28            29            30 
      1   0.274246D-01  0.359548D-01  0.156823D-01  0.114017D-01  0.759974D-01
      2  -0.834301D-01 -0.274829D-01  0.208052D-01  0.549926D-01 -0.227559D-01
      3  -0.131917D-03 -0.139716D-04  0.323747D-04  0.274774D-04 -0.217352D-03
                31            32            33            34            35 
      1   0.115359D+00 -0.100927D+00 -0.121406D+00  0.228562D+00 -0.956222D-01
      2   0.139520D+00 -0.227439D-01 -0.246071D+00 -0.405215D+00 -0.204155D+00
      3   0.519944D-04 -0.384859D-04 -0.115510D-02  0.278846D-03  0.730687D-03
                36 
      1  -0.265207D+00
      2   0.172166D+00
      3   0.859671D-04
 After rot to inp orien Numerical derivative of Dipole Derivatives 
                 1             2             3             4             5 
      1   0.578394D-04  0.200293D-01 -0.127920D-03 -0.256470D-01 -0.984271D-04
      2   0.853199D-04 -0.125560D-01  0.242962D-04 -0.207117D-01 -0.933859D-04
      3  -0.647981D-01 -0.355658D-03 -0.263610D-01  0.180515D-03 -0.316227D-01
      4   0.955359D-04 -0.238313D-01  0.639331D-04 -0.120095D+00 -0.721892D-03
      5   0.402536D-04  0.109865D-01 -0.705805D-04  0.105556D+00  0.760273D-03
      6   0.314872D-01  0.272204D-03  0.393593D-01 -0.859337D-03  0.160576D+00
      7  -0.528780D-01 -0.446409D-03 -0.503520D-01  0.574073D-03 -0.970382D-01
      8   0.267495D-01  0.311357D-04 -0.565858D-02 -0.733070D-03  0.135122D+00
      9   0.239463D-04 -0.370485D-02 -0.129282D-03  0.395982D-02 -0.155621D-03
     10  -0.541875D-03  0.739913D-03  0.581504D-03  0.443001D-01  0.391296D-03
     11   0.471291D-04 -0.292459D-01  0.691351D-04 -0.216810D-01 -0.132345D-03
     12   0.404662D-02  0.380462D-03  0.629620D-01  0.246074D-03 -0.425999D-01
     13   0.268194D-03 -0.223184D-01 -0.174061D-03  0.184205D-02 -0.200317D-03
     14  -0.969930D-04  0.347921D-01 -0.196060D-03 -0.679472D-02 -0.104231D-03
     15  -0.409480D-01 -0.534227D-04  0.109393D-01 -0.829540D-04  0.826058D-02
     16  -0.116747D-01  0.586654D-03  0.112010D+00  0.401850D-03 -0.777081D-01
     17   0.945939D-02  0.119507D-03  0.611768D-02  0.242796D-03 -0.527338D-01
     18   0.137442D-03 -0.423688D-02 -0.126867D-03  0.317737D-01  0.272148D-03
     19   0.594885D-03  0.204160D-01 -0.109414D-02 -0.173772D-01 -0.145995D-03
     20  -0.181613D-04  0.355231D-01 -0.327374D-03  0.446132D-02 -0.398080D-04
     21   0.106648D+00 -0.727353D-03 -0.186648D+00 -0.313189D-03  0.564321D-01
     22  -0.358405D-03  0.427637D-01 -0.986598D-04 -0.217788D-01  0.364077D-04
     23  -0.117395D-03  0.126721D-01 -0.725619D-04 -0.547732D-01 -0.319313D-03
     24   0.726653D-01 -0.506264D-03 -0.116430D+00  0.296598D-03 -0.415742D-01
     25   0.156286D+00 -0.919041D-03 -0.243706D+00 -0.364963D-04 -0.417893D-02
     26   0.274903D-01 -0.435324D-03 -0.662300D-01  0.770695D-04  0.292832D-02
     27  -0.502677D-03  0.109057D-01  0.800920D-03 -0.168923D-01 -0.195012D-03
     28  -0.365236D-03  0.528451D-01  0.388750D-04 -0.682387D-02 -0.106800D-03
     29   0.706783D-04 -0.566192D-02 -0.215729D-04  0.536801D-02  0.260017D-04
     30   0.270414D-01  0.125330D-03  0.114755D-01 -0.232864D-04  0.122903D-03
     31   0.117432D-03 -0.111854D-01 -0.635916D-04  0.615949D-01  0.382615D-03
     32  -0.810683D-04  0.163243D-02  0.625191D-04 -0.371524D-01 -0.340731D-03
     33  -0.640778D-02 -0.129226D-03 -0.229368D-01  0.442993D-03 -0.808014D-01
     34   0.242773D-01  0.885572D-04 -0.917300D-02 -0.372380D-03  0.630574D-01
     35  -0.217474D-01 -0.712321D-04  0.185812D-02  0.203759D-03 -0.334222D-01
     36   0.274240D-04 -0.127065D-04  0.601008D-04 -0.159686D-02  0.619989D-04
     37   0.758052D-04 -0.102561D-01 -0.181337D-04 -0.144576D-01 -0.917331D-04
     38  -0.243554D-04  0.138798D-01 -0.452136D-04  0.178219D-01  0.166215D-03
     39   0.150352D-01  0.626455D-04  0.130023D-02 -0.934813D-04  0.157661D-01
     40  -0.683970D-04  0.196316D-01 -0.698482D-04  0.436076D-01  0.275558D-03
     41   0.864611D-04 -0.186310D-01  0.362774D-04 -0.418650D-01 -0.281484D-03
     42  -0.450945D-02 -0.278885D-04 -0.495995D-02  0.166657D-03 -0.286591D-01
     43   0.116628D-01  0.112156D-03  0.137174D-01 -0.398421D-03  0.730118D-01
     44  -0.102691D-01 -0.289093D-05  0.288632D-02  0.302066D-03 -0.573262D-01
     45  -0.228364D-05 -0.416283D-02  0.244612D-04 -0.240069D-01 -0.685214D-04
     46   0.217010D-01 -0.573919D-02 -0.198221D-01  0.315302D-02 -0.227255D-01
     47   0.492426D-03  0.416306D-02  0.393647D-02  0.854323D-03 -0.145181D-01
     48   0.138524D-02 -0.284580D-02 -0.105175D-01  0.794499D-02 -0.160388D-03
     49  -0.443680D-02  0.296504D-02  0.450953D-02  0.578381D-02 -0.646925D-02
     50   0.895646D-02 -0.132948D-02 -0.224885D-01  0.626738D-02 -0.189383D-01
     51  -0.259515D-02 -0.158650D-02  0.176138D-02  0.801520D-02 -0.131073D-01
     52  -0.453805D-02 -0.143229D-02 -0.942334D-02  0.120055D-01  0.177162D-01
     53   0.659309D-02 -0.335865D-02 -0.120691D-01  0.925824D-02 -0.282847D-02
     54   0.159355D-01  0.135762D-02 -0.161185D-01  0.358057D-02 -0.442904D-01
     55  -0.215709D-01 -0.564078D-02  0.198053D-01  0.297135D-02  0.226884D-01
     56  -0.542122D-03  0.412259D-02 -0.395873D-02  0.705534D-03  0.145102D-01
     57   0.136716D-02  0.272883D-02 -0.105324D-01 -0.795311D-02 -0.293909D-03
     58   0.443354D-02  0.293806D-02 -0.448018D-02  0.574019D-02  0.655718D-02
     59  -0.899306D-02 -0.115272D-02  0.225638D-01  0.612955D-02  0.190528D-01
     60  -0.261388D-02  0.159396D-02  0.178272D-02 -0.788568D-02 -0.132311D-01
     61  -0.456823D-02  0.130250D-02 -0.940480D-02 -0.121895D-01  0.175585D-01
     62   0.659494D-02  0.325793D-02 -0.121135D-01 -0.922806D-02 -0.293613D-02
     63  -0.159829D-01  0.144852D-02  0.161842D-01  0.308584D-02  0.443072D-01
     64   0.485540D-04 -0.723942D-01  0.636609D-03  0.138812D-01  0.887531D-04
     65  -0.110915D-03 -0.102248D-01  0.322989D-03  0.131817D-01  0.812762D-04
     66  -0.907252D-01  0.631546D-03  0.158322D+00  0.114842D-04  0.235576D-02
     67  -0.511061D-04 -0.109633D-01  0.312884D-03  0.233053D-01  0.139702D-03
     68   0.205346D-03 -0.389700D-01  0.165083D-03  0.226326D-01  0.171023D-03
     69  -0.470782D-01  0.437137D-03  0.904838D-01 -0.934736D-04  0.853599D-02
     70  -0.118567D+00  0.707872D-03  0.196332D+00  0.154078D-04  0.758139D-02
     71  -0.448708D-01  0.459524D-03  0.852090D-01 -0.122798D-03  0.111960D-01
     72   0.363528D-03 -0.159461D-02 -0.695087D-03  0.961878D-04  0.682529D-04
                 6             7             8             9            10 
      1  -0.121810D-01 -0.345436D-04  0.138041D-01 -0.387533D-04  0.113800D+00
      2   0.126538D-01 -0.103535D-03  0.106788D-01 -0.134148D-04  0.247236D-01
      3  -0.140995D-05 -0.315262D-01 -0.297151D-04  0.389087D-01 -0.132097D-04
      4  -0.114665D+00  0.168939D-03  0.602254D-01  0.163974D-03  0.180944D+00
      5   0.582902D-01  0.166256D-04 -0.281057D-01 -0.506277D-05  0.293037D-01
      6  -0.263389D-04  0.117312D+00 -0.162343D-03  0.566534D-01  0.534177D-04
      7   0.887915D-04  0.171310D-01 -0.211657D-03  0.657734D-01 -0.218738D-03
      8   0.622659D-04  0.695187D-01 -0.134361D-03  0.290990D-01 -0.659009D-04
      9   0.234972D-01 -0.198262D-03 -0.207401D-01 -0.299401D-04  0.505144D-01
     10  -0.140240D+00  0.258262D-03  0.622870D-01  0.425591D-05  0.433654D-01
     11  -0.651634D-01 -0.137402D-03 -0.854203D-01  0.142085D-03 -0.134020D-01
     12  -0.858560D-04  0.657058D-01  0.938070D-04 -0.914257D-01  0.101669D-03
     13  -0.275720D-01 -0.148451D-03 -0.198322D-02  0.289473D-03 -0.850905D-01
     14   0.151874D-01  0.307963D-03  0.251750D+00  0.241872D-03  0.804493D-01
     15   0.373871D-04 -0.981921D-01  0.230643D-03  0.490042D-01 -0.195678D-03
     16  -0.140009D-03  0.204108D-01  0.314796D-03 -0.127722D+00  0.168427D-03
     17   0.153383D-04  0.173041D-01  0.286247D-03  0.350700D-01 -0.899236D-04
     18  -0.685106D-02  0.180528D-04  0.828949D-01  0.865329D-04  0.358153D-01
     19  -0.130643D-02 -0.197736D-03 -0.107419D+00  0.167955D-03 -0.303901D-02
     20   0.589812D-01  0.387290D-03  0.179649D+00 -0.101435D-03 -0.353706D-01
     21   0.461705D-04 -0.619893D-01  0.145974D-03  0.392115D-01 -0.113112D-04
     22   0.147922D-01  0.179890D-03  0.460958D-01 -0.322752D-03 -0.309411D-01
     23  -0.180378D-01 -0.773694D-04 -0.191144D+00 -0.371726D-03 -0.755587D-01
     24  -0.525925D-04  0.500542D-01 -0.198470D-03 -0.207310D-01  0.111526D-03
     25   0.454893D-04 -0.521312D-01 -0.647485D-04  0.795925D-01 -0.219647D-03
     26  -0.112052D-03 -0.588267D-02 -0.278671D-03 -0.427479D-01  0.196282D-03
     27  -0.415153D-02  0.330041D-04 -0.224115D-01 -0.104645D-04 -0.338845D-02
     28   0.555560D-01  0.600453D-04  0.179924D-02 -0.193591D-03 -0.161614D+00
     29   0.214998D-02 -0.139442D-04  0.139420D-01  0.906412D-04  0.217169D-01
     30  -0.507506D-05 -0.228650D-01  0.243594D-04 -0.201584D-01 -0.460007D-04
     31   0.542987D-01 -0.775712D-04 -0.456864D-01 -0.894876D-04 -0.129818D+00
     32  -0.233218D-01  0.337610D-04  0.123234D-01 -0.955608D-05 -0.434091D-01
     33  -0.208775D-04 -0.829557D-01  0.138280D-03 -0.534304D-01 -0.325787D-04
     34   0.134025D-05 -0.110873D-02  0.762346D-04 -0.197407D-01  0.200790D-04
     35  -0.290477D-04 -0.307732D-01  0.690459D-04 -0.244289D-01  0.839460D-04
     36  -0.592180D-02  0.828299D-04  0.698031D-02  0.453063D-04 -0.120643D-01
     37   0.368300D-01 -0.681734D-04  0.113308D-02  0.378171D-04 -0.214985D-02
     38   0.251395D-01  0.110456D-04 -0.108738D-01 -0.510664D-04  0.102930D-01
     39   0.431929D-04  0.916401D-02 -0.244540D-04  0.553010D-02 -0.193803D-04
     40   0.502400D-01 -0.455109D-04 -0.206211D-01 -0.608598D-04 -0.198912D-01
     41  -0.266932D-01 -0.992386D-05  0.206852D-01  0.522849D-04  0.310585D-01
     42   0.158483D-04 -0.295496D-01  0.257327D-04 -0.101043D-01 -0.105997D-04
     43   0.325648D-04  0.362561D-01 -0.668317D-05 -0.123455D-02  0.365493D-04
     44   0.686656D-05 -0.533594D-01  0.520593D-04 -0.136420D-01  0.328922D-04
     45  -0.173463D-01  0.822406D-04  0.143999D-01  0.609188D-04  0.139912D-01
     46   0.245625D-01 -0.191616D-01 -0.131437D-01  0.194911D-01 -0.154613D-01
     47  -0.416103D-02  0.295514D-01 -0.200983D-01 -0.790099D-02 -0.673407D-02
     48  -0.578838D-03  0.131988D-01 -0.945427D-03  0.185242D-01 -0.155957D-01
     49   0.129151D-01  0.287293D-01 -0.231108D-01 -0.199667D-01  0.238849D-01
     50   0.212159D-02  0.150250D-01 -0.268970D-01  0.181815D-01 -0.371720D-01
     51  -0.173005D-02  0.287610D-01 -0.484828D-02 -0.179169D-01 -0.644400D-02
     52  -0.103069D-01 -0.141472D-01  0.295072D-02  0.124295D-01  0.124708D-01
     53  -0.112605D-01  0.638781D-02 -0.372183D-01 -0.390391D-02 -0.156104D-01
     54   0.566834D-02  0.592443D-01 -0.312731D-01  0.180277D-01 -0.353719D-01
     55   0.246109D-01  0.191013D-01 -0.130161D-01 -0.195297D-01 -0.153388D-01
     56  -0.415637D-02 -0.295582D-01 -0.200904D-01  0.779926D-02 -0.681613D-02
     57   0.620739D-03  0.132437D-01  0.836157D-03  0.185768D-01  0.155549D-01
     58   0.128350D-01 -0.287604D-01 -0.231420D-01  0.198473D-01  0.238227D-01
     59   0.207660D-02 -0.151793D-01 -0.268143D-01 -0.182577D-01 -0.371513D-01
     60   0.176127D-02  0.288129D-01  0.482372D-02 -0.178861D-01  0.655438D-02
     61   0.103612D-01 -0.141369D-01 -0.300011D-02  0.123683D-01 -0.124650D-01
     62   0.112504D-01  0.642014D-02  0.371156D-01 -0.372691D-02  0.156060D-01
     63   0.561412D-02 -0.592226D-01 -0.309952D-01 -0.181474D-01 -0.353699D-01
     64   0.121684D-01  0.424192D-04  0.545549D-01  0.608703D-04  0.404376D-01
     65  -0.254436D-01 -0.136664D-03 -0.677867D-01  0.349206D-04  0.558937D-02
     66  -0.389226D-04  0.150681D-01 -0.100702D-03 -0.916713D-02  0.290554D-04
     67  -0.284409D-02 -0.462091D-04  0.822235D-02  0.139069D-03  0.370893D-01
     68  -0.962292D-02 -0.116807D-03 -0.117977D-01  0.168344D-03  0.524796D-01
     69   0.153535D-04 -0.142428D-01 -0.928385D-05  0.144111D-01 -0.364676D-04
     70  -0.825068D-04  0.772624D-02 -0.585508D-04 -0.214664D-01  0.207541D-03
     71   0.667956D-04 -0.961546D-02  0.108390D-03  0.242806D-01 -0.152849D-03
     72  -0.509040D-03 -0.395601D-04  0.114468D-02 -0.326351D-04 -0.141264D-01
                11            12            13            14            15 
      1   0.244201D+00 -0.232015D-02  0.368747D-01 -0.426371D+00 -0.257657D-01
      2  -0.112979D+00 -0.170136D-01  0.110423D+00  0.774420D-01  0.142435D+00
      3   0.230792D-03 -0.652327D-04  0.541716D-04 -0.196080D-03  0.304114D-03
      4   0.680634D-01 -0.990343D-01 -0.483060D-02 -0.616047D-01  0.597702D-01
      5  -0.814212D-01 -0.181458D-01 -0.239325D-01 -0.195136D+00 -0.190364D+00
      6   0.981947D-04  0.133255D-04  0.670980D-05  0.153270D-05  0.107333D-03
      7   0.206631D-03  0.344680D-04  0.471667D-04 -0.401137D-04 -0.744162D-04
      8   0.427420D-04  0.102117D-04  0.323578D-04  0.111027D-03  0.768896D-04
      9  -0.124489D-01 -0.112310D-01  0.604991D-03 -0.101983D+00 -0.110947D+00
     10  -0.193827D+00 -0.148100D+00 -0.605997D-01  0.135258D+00  0.183594D+00
     11  -0.833906D-02  0.903962D-01 -0.146999D+00  0.565845D-01 -0.191411D-01
     12  -0.191704D-03  0.322032D-04 -0.114882D-03  0.453209D-04 -0.301889D-03
     13  -0.507133D-02  0.160029D+00 -0.696680D-01  0.427979D-02  0.122425D+00
     14  -0.351681D-01 -0.221439D+00 -0.205464D-01 -0.517267D-01  0.530943D+00
     15   0.164897D-04 -0.316074D-03 -0.795694D-04  0.252432D-04  0.970132D-03
     16  -0.227151D-03  0.219809D-04 -0.115195D-03 -0.394270D-04  0.509222D-04
     17  -0.523807D-04 -0.225689D-03 -0.100879D-03 -0.351974D-04  0.680288D-03
     18  -0.389918D-01 -0.121429D+00  0.754850D-01  0.661618D-02  0.448645D+00
     19   0.140206D-01  0.158207D+00 -0.892194D-02  0.995382D-02 -0.535828D-01
     20   0.219909D-01 -0.131755D+00  0.230102D-01 -0.419589D-01  0.595908D-01
     21  -0.756881D-05 -0.394206D-04  0.332592D-04  0.439860D-05  0.428601D-03
     22   0.411978D-01 -0.858820D-01 -0.520808D-01 -0.951175D-02 -0.510745D-02
     23   0.670184D-01  0.114025D+00 -0.527950D-01  0.315423D-01 -0.216294D+00
     24  -0.586722D-04  0.255514D-03  0.239345D-04  0.307827D-04 -0.509076D-03
     25   0.182137D-03  0.352978D-04  0.442333D-05  0.551796D-04  0.175280D-03
     26  -0.783043D-04  0.328723D-03  0.120420D-04  0.359993D-04 -0.136168D-03
     27  -0.221123D-02  0.108036D+00 -0.531824D-02  0.114270D-01 -0.228809D-01
     28   0.484023D-02 -0.371899D-01  0.119443D-01  0.153218D+00 -0.209320D-02
     29   0.157418D-01  0.327907D-01 -0.131111D-01  0.161422D-01 -0.406761D-01
     30  -0.358082D-04  0.425194D-04  0.226699D-05  0.749136D-04 -0.101411D-03
     31  -0.566248D-01  0.102230D+00  0.331241D-01  0.707277D-01 -0.328209D-01
     32   0.424836D-01  0.119338D-01  0.275680D-02  0.802840D-01  0.468430D-01
     33  -0.480661D-04  0.000000D+00  0.672552D-05 -0.173613D-04 -0.800253D-04
     34   0.239924D-04 -0.116061D-03 -0.516255D-04  0.247692D-05  0.475318D-04
     35  -0.375990D-04  0.216344D-04 -0.170985D-04 -0.374511D-04 -0.303448D-04
     36   0.159107D-01  0.132395D-01  0.560995D-03  0.792762D-02  0.207351D-01
     37  -0.441463D-02  0.391414D-01  0.225171D-01  0.988603D-01  0.249210D-01
     38   0.538033D-01 -0.245782D-02 -0.262561D-01 -0.722033D-01 -0.436934D-01
     39  -0.651533D-05  0.279126D-04  0.000000D+00  0.707525D-04 -0.205493D-04
     40   0.163016D-01  0.162176D-02 -0.211672D-02 -0.117673D-01 -0.338913D-01
     41   0.260421D-01  0.205512D-01  0.127181D-01  0.810766D-01  0.668144D-01
     42   0.584486D-05 -0.124119D-04 -0.670512D-05 -0.272480D-04 -0.308288D-04
     43  -0.367009D-04  0.285029D-04  0.253978D-04  0.321468D-04  0.616141D-04
     44   0.124293D-04 -0.706651D-05 -0.978687D-05 -0.446355D-04 -0.175763D-04
     45   0.114348D-01 -0.176554D-02  0.574364D-02  0.383622D-01  0.157594D-01
     46  -0.392140D-02  0.105069D-01 -0.128161D-01  0.423749D-02 -0.714913D-01
     47   0.197686D-01  0.495127D-02  0.236268D-01 -0.175560D-01 -0.524860D-01
     48   0.842081D-02  0.209472D-01 -0.433974D-01  0.698257D-02 -0.311386D-02
     49  -0.203559D-01 -0.462717D-01  0.471394D-01  0.638595D-02 -0.532748D-01
     50   0.171367D-01  0.314811D-01  0.187571D-01  0.148089D-01 -0.122125D+00
     51  -0.978455D-02 -0.187638D-01 -0.385574D-01  0.214987D-02 -0.473094D-01
     52  -0.186039D-01 -0.101621D-01 -0.844126D-01 -0.272257D-02 -0.493633D-01
     53   0.761198D-02  0.913430D-02 -0.115963D+00  0.379135D-03 -0.852741D-01
     54   0.114138D-01  0.280248D-01 -0.423157D-01  0.155847D-01 -0.159722D+00
     55  -0.407325D-02  0.104098D-01 -0.128832D-01  0.426847D-02 -0.714912D-01
     56   0.198422D-01  0.489635D-02  0.234644D-01 -0.175104D-01 -0.523911D-01
     57  -0.842123D-02 -0.209741D-01  0.434269D-01 -0.695053D-02  0.291204D-02
     58  -0.203536D-01 -0.463496D-01  0.469501D-01  0.636581D-02 -0.532014D-01
     59   0.170723D-01  0.313609D-01  0.186107D-01  0.147891D-01 -0.121970D+00
     60   0.972779D-02  0.189165D-01  0.386049D-01 -0.213853D-02  0.467897D-01
     61   0.185990D-01  0.100429D-01  0.844952D-01  0.274281D-02  0.492015D-01
     62  -0.757831D-02 -0.905059D-02  0.116070D+00 -0.372970D-03  0.847270D-01
     63   0.114148D-01  0.278456D-01 -0.421042D-01  0.155403D-01 -0.159085D+00
     64  -0.568260D-01 -0.306558D-01  0.238849D-01  0.205743D-01  0.159093D-01
     65  -0.982841D-02  0.181916D-01  0.584238D-02 -0.940137D-03  0.636173D-02
     66   0.112294D-04  0.289377D-04 -0.340911D-05 -0.313406D-04 -0.107049D-03
     67  -0.231572D-01  0.136569D-01  0.148269D-02 -0.487552D-02 -0.389899D-02
     68  -0.531639D-01  0.302326D-01  0.444312D-01  0.243619D-01  0.615204D-02
     69   0.429719D-04 -0.938512D-04  0.137445D-05 -0.242832D-04  0.622074D-04
     70  -0.144006D-03  0.114940D-03  0.721322D-05 -0.304961D-04 -0.992086D-04
     71   0.794414D-04 -0.211527D-03 -0.233245D-04 -0.359069D-04 -0.259687D-04
     72   0.347784D-02 -0.427207D-01  0.734345D-02  0.652480D-02 -0.325044D-01
                16            17            18            19            20 
      1   0.171166D+00  0.347139D-04  0.834680D-02 -0.219596D-01 -0.171941D-01
      2  -0.191848D+00 -0.236535D-03  0.288212D-01 -0.820816D-02  0.645839D-02
      3   0.226018D-03  0.133457D+00 -0.723410D-04  0.126643D-03  0.124627D-03
      4  -0.473315D+00  0.147571D-03  0.167977D-01 -0.772698D-02  0.119579D-02
      5   0.717945D+00  0.697932D-04  0.290907D-01 -0.363481D-02  0.765714D-02
      6  -0.545861D-03 -0.178061D-01 -0.134625D-03 -0.797524D-04  0.498691D-04
      7   0.250643D-03 -0.396598D-01  0.586970D-04  0.412117D-03  0.254851D-03
      8  -0.368023D-03 -0.283728D-01  0.261245D-04 -0.140078D-03 -0.931609D-05
      9   0.539877D-01  0.159890D-03 -0.247615D-01  0.234358D-02  0.344343D-02
     10   0.186091D-01 -0.596580D-03  0.182059D+00  0.735614D-01  0.735935D-02
     11  -0.229483D-01 -0.228645D-03  0.683438D-01  0.132337D-01  0.163936D-02
     12  -0.525004D-04 -0.257064D-02 -0.723992D-04  0.196032D-03  0.540424D-04
     13   0.132067D+00 -0.509172D-03 -0.164235D+00  0.477339D-02  0.459742D-02
     14  -0.284253D-01 -0.113205D-02  0.279480D-01 -0.861149D-02 -0.240674D-01
     15   0.345056D-03  0.414497D+00  0.161247D-03 -0.180014D-03 -0.216986D-04
     16   0.187634D-05  0.930492D-01 -0.219359D-03 -0.226402D-03 -0.932547D-04
     17   0.197604D-03  0.278802D+00 -0.220368D-03 -0.820707D-05 -0.436796D-04
     18   0.655636D-01 -0.325449D-03  0.758402D-02 -0.748019D-02 -0.318079D-02
     19  -0.418234D-01  0.216465D-03 -0.489259D-01 -0.786384D-01 -0.354240D-01
     20   0.540485D-01  0.114737D-03 -0.126533D+00 -0.211454D-01 -0.676907D-02
     21   0.431038D-04  0.336783D-01 -0.353000D-03  0.131918D-03  0.272774D-04
     22  -0.122907D-01 -0.154796D-05  0.336413D+00 -0.196956D-01 -0.152451D-01
     23  -0.375106D-01  0.220006D-03 -0.262164D+00  0.441816D-01  0.145549D-01
     24  -0.106761D-03 -0.123408D+00 -0.251456D-03  0.172070D-03 -0.702751D-04
     25  -0.338318D-05  0.301708D-01 -0.448070D-03  0.586521D-03  0.919206D-04
     26   0.247932D-04  0.377803D-02  0.299585D-03 -0.712490D-04 -0.185750D-03
     27   0.618899D-03 -0.400616D-04 -0.214230D+00  0.967602D-01 -0.307777D-02
     28  -0.634193D-01  0.516930D-04  0.126693D+00 -0.183787D-02 -0.264636D-01
     29   0.455380D-04  0.109977D-03  0.116821D-01 -0.867144D-02 -0.487749D-02
     30  -0.346455D-04 -0.454015D-01 -0.408468D-04 -0.114860D-03 -0.155686D-03
     31   0.190483D+00 -0.398262D-04 -0.824258D-01  0.554813D-03  0.144978D-01
     32  -0.317848D+00  0.581706D-04 -0.288481D-01  0.569377D-02 -0.711960D-02
     33   0.227917D-03 -0.112848D-01  0.110272D-03  0.765271D-04  0.297545D-04
     34  -0.107615D-03  0.237956D-01  0.156910D-03 -0.762186D-04  0.411106D-04
     35   0.163294D-03  0.117300D-01  0.141040D-04  0.392142D-04  0.279188D-04
     36  -0.242282D-01 -0.270697D-04 -0.279302D-02 -0.619914D-02  0.142310D-02
     37  -0.832371D-01  0.134168D-04 -0.144806D-01 -0.383202D-02  0.702024D-02
     38   0.165899D+00  0.203832D-04 -0.183657D-01 -0.469057D-03 -0.183029D-02
     39  -0.116183D-03 -0.202184D-01  0.305464D-04 -0.598846D-04 -0.180944D-04
     40   0.190122D+00 -0.145602D-04 -0.412342D-03  0.180362D-02 -0.160613D-02
     41  -0.325512D+00  0.289155D-04 -0.813278D-02 -0.587198D-02  0.133647D-02
     42   0.223109D-03  0.241837D-02  0.125649D-04  0.000000D+00 -0.770635D-04
     43  -0.113533D-03  0.448786D-02 -0.269393D-04 -0.109587D-03 -0.614188D-04
     44   0.167857D-03 -0.326468D-03 -0.304635D-04  0.121633D-03  0.389503D-04
     45  -0.579660D-01  0.891513D-05  0.670519D-02  0.257271D-02 -0.449266D-03
     46  -0.101496D-01 -0.136790D-01 -0.137789D-01 -0.101522D-01  0.167724D-03
     47   0.239679D-02 -0.257223D-01 -0.149922D-01  0.242098D-02  0.691741D-03
     48   0.182992D-02 -0.550763D-01 -0.303764D-02  0.519527D-04  0.164117D-02
     49  -0.727765D-02 -0.471285D-01  0.164286D-01 -0.540165D-02 -0.128638D-02
     50  -0.137306D-01 -0.618636D-01  0.368565D-01 -0.526758D-02  0.147115D-02
     51  -0.517633D-02 -0.133306D+00  0.750347D-02 -0.469028D-02 -0.122705D-02
     52  -0.778327D-02 -0.451903D-01  0.224929D-03 -0.394036D-02  0.119528D-03
     53  -0.162648D-01 -0.116868D+00 -0.205304D-02 -0.967503D-03  0.906294D-03
     54  -0.166694D-01 -0.953994D-01  0.997750D-02 -0.476955D-02  0.596120D-03
     55  -0.101308D-01  0.140477D-01 -0.138333D-01 -0.102755D-01  0.129032D-03
     56   0.238023D-02  0.260348D-01 -0.150654D-01  0.243977D-02  0.737127D-03
     57  -0.189156D-02 -0.551341D-01  0.307505D-02 -0.118405D-03 -0.164769D-02
     58  -0.722484D-02  0.475184D-01  0.164227D-01 -0.536449D-02 -0.123548D-02
     59  -0.136918D-01  0.625740D-01  0.369406D-01 -0.536094D-02  0.147564D-02
     60   0.504323D-02 -0.133459D+00 -0.755013D-02  0.472728D-02  0.119169D-02
     61   0.774450D-02 -0.453975D-01 -0.222322D-03  0.384940D-02 -0.125947D-03
     62   0.161327D-01 -0.117112D+00  0.214453D-02  0.983639D-03 -0.903591D-03
     63  -0.165320D-01  0.955413D-01  0.994972D-02 -0.479212D-02  0.594251D-03
     64   0.189847D-01 -0.883769D-04 -0.226080D+00  0.531342D-01  0.644054D-01
     65  -0.997341D-02 -0.924425D-04  0.661092D-01  0.203996D-01  0.395024D-02
     66  -0.415900D-05  0.112658D-01  0.470628D-03 -0.213396D-03 -0.256478D-04
     67  -0.125642D-01  0.276973D-04 -0.138989D+00  0.310569D-01 -0.917857D-03
     68   0.187731D-01  0.447713D-04  0.168309D+00 -0.211286D-01  0.469173D-02
     69  -0.103606D-04  0.234761D-02  0.148658D-03 -0.250848D-04  0.124765D-03
     70   0.107826D-04 -0.212558D-01  0.476155D-03 -0.495467D-03 -0.226789D-03
     71  -0.533887D-04 -0.316307D-01 -0.180475D-03  0.425511D-04  0.169174D-03
     72  -0.477459D-02  0.818826D-04  0.207568D+00 -0.784354D-01  0.650926D-03
                21            22            23            24            25 
      1  -0.261940D-01 -0.477680D-01 -0.143931D-01  0.244734D-01  0.743084D-01
      2  -0.187074D-01 -0.322142D-02  0.166757D-01  0.496599D-01  0.214269D-01
      3   0.139055D-03  0.909829D-04  0.172231D-03  0.128750D-03  0.261396D-03
      4  -0.156843D-01  0.673524D-02 -0.951599D-01  0.821897D-01 -0.328455D-01
      5  -0.181736D-01 -0.462149D-02  0.107761D+00  0.483823D-01  0.124149D-01
      6  -0.340576D-04 -0.148220D-03 -0.352382D-04 -0.304857D-04 -0.729165D-04
      7   0.428358D-03  0.543135D-03  0.184282D-03  0.354901D-03  0.361736D-03
      8  -0.893086D-04 -0.501376D-04 -0.182635D-03 -0.109656D-03 -0.517563D-04
      9  -0.126552D-01 -0.118294D-01  0.481470D-01  0.284583D-02  0.335522D-02
     10   0.470137D-01  0.120707D-01  0.794328D-01  0.253199D-01 -0.459878D-01
     11  -0.254685D-01  0.216281D-01 -0.410905D-02 -0.496657D-01 -0.275418D-01
     12   0.824661D-04 -0.182065D-04  0.156496D-03  0.578343D-04 -0.351807D-04
     13   0.457507D-01 -0.336334D-02  0.303805D-01 -0.743653D-01  0.215939D-01
     14  -0.681386D-02  0.556475D-02  0.415387D-01 -0.999274D-02 -0.348822D-01
     15  -0.274349D-03 -0.180424D-03  0.272170D-03  0.290787D-04  0.356411D-04
     16  -0.384367D-03 -0.287007D-03 -0.100411D-05 -0.715080D-04 -0.332205D-03
     17  -0.144658D-03 -0.129573D-03  0.915441D-05 -0.283258D-04 -0.126314D-03
     18  -0.509656D-01  0.408457D-02  0.281423D-01 -0.113736D-01 -0.350609D-01
     19  -0.157724D+00  0.432652D-02 -0.440958D-01 -0.116695D-01 -0.315838D-01
     20  -0.161632D-01 -0.990585D-02  0.180688D-02  0.155551D-01 -0.242439D-01
     21   0.630530D-03  0.250019D-04 -0.357402D-04  0.572791D-05 -0.378777D-04
     22  -0.169060D+00 -0.104050D-01  0.273043D-01  0.143635D-01  0.134536D-01
     23   0.960308D-01  0.111775D-01 -0.200356D-01  0.122191D-02  0.308551D-01
     24   0.703306D-03  0.123760D-03 -0.700321D-04  0.375158D-04 -0.171267D-04
     25   0.122674D-02  0.561704D-04  0.347162D-04  0.624178D-04  0.518096D-04
     26   0.407618D-03  0.208625D-04  0.448738D-04  0.107541D-04  0.331461D-04
     27   0.329993D+00  0.594855D-02  0.164052D-01  0.649218D-02  0.565067D-01
     28   0.412383D-01  0.283843D-01  0.123203D-01 -0.317775D-02 -0.522816D-02
     29  -0.148925D-01 -0.162345D-01 -0.112326D-01 -0.160124D-01  0.388967D-02
     30  -0.545948D-04  0.386243D-04 -0.274299D-03 -0.116990D-03 -0.111072D-03
     31   0.267145D-02  0.278206D-02  0.265511D-01 -0.408908D-01 -0.620436D-02
     32   0.310380D-01  0.175784D-02 -0.574250D-01 -0.287981D-01 -0.655793D-02
     33   0.530679D-04  0.110553D-03  0.926300D-05  0.182935D-04  0.440803D-04
     34  -0.188410D-03 -0.102856D-03 -0.229940D-03 -0.162905D-03 -0.119474D-03
     35   0.502422D-04  0.472330D-04  0.124851D-03  0.688824D-04  0.593960D-04
     36   0.144620D-01  0.777355D-02 -0.572904D-02 -0.256075D-02  0.326717D-01
     37  -0.615486D-02  0.267301D-02  0.122483D-01  0.422662D-02 -0.166057D-02
     38   0.917232D-02  0.126610D-02  0.116133D-01  0.493978D-02  0.250711D-01
     39  -0.426365D-04 -0.521852D-04  0.951140D-05 -0.938520D-05 -0.361735D-04
     40   0.440486D-02 -0.152127D-02  0.347593D-01 -0.164645D-01  0.205404D-01
     41  -0.125120D-01  0.150366D-03 -0.621511D-01 -0.176896D-01 -0.238359D-01
     42  -0.253231D-04  0.469822D-04 -0.914144D-04 -0.417857D-04 -0.167032D-04
     43  -0.692945D-04 -0.207350D-03  0.111967D-03 -0.485767D-04 -0.592549D-04
     44   0.124410D-03  0.138652D-03  0.714766D-04  0.129326D-03  0.112373D-03
     45  -0.172373D-02  0.196343D-02 -0.526059D-01 -0.387772D-02 -0.234811D-01
     46  -0.555279D-02 -0.375703D-02 -0.254111D-01 -0.192241D-01  0.618214D-02
     47   0.670756D-02 -0.196615D-02 -0.413654D-02 -0.306771D-02 -0.665060D-03
     48  -0.102896D-02 -0.212179D-02  0.950752D-02 -0.337624D-02 -0.346486D-02
     49  -0.441514D-02  0.151073D-03 -0.657401D-02  0.151922D-01 -0.340730D-02
     50  -0.135224D-01 -0.127949D-02 -0.878367D-02  0.346185D-02  0.122004D-01
     51  -0.777172D-02 -0.821488D-03 -0.241686D-02 -0.291992D-02 -0.135799D-01
     52  -0.397320D-02  0.767407D-03  0.104765D-01  0.108239D-01  0.186348D-03
     53   0.177664D-02  0.866215D-03 -0.958884D-02  0.588001D-03  0.850379D-03
     54   0.431178D-02 -0.251586D-02 -0.172998D-01  0.552795D-02 -0.130198D-01
     55  -0.568524D-02 -0.387958D-02 -0.251728D-01 -0.192297D-01  0.626941D-02
     56   0.675287D-02 -0.194402D-02 -0.407975D-02 -0.303517D-02 -0.563201D-03
     57   0.988181D-03  0.210119D-02 -0.953587D-02  0.335035D-02  0.346024D-02
     58  -0.438155D-02  0.872658D-04 -0.644092D-02  0.152549D-01 -0.346732D-02
     59  -0.136538D-01 -0.146564D-02 -0.857408D-02  0.344580D-02  0.121823D-01
     60   0.784457D-02  0.894099D-03  0.232738D-02  0.291877D-02  0.136280D-01
     61   0.391960D-02 -0.732195D-03 -0.105665D-01 -0.109252D-01 -0.641949D-04
     62  -0.175615D-02 -0.834766D-03  0.954513D-02 -0.620173D-03 -0.810026D-03
     63   0.424861D-02 -0.248343D-02 -0.172885D-01  0.553706D-02 -0.129363D-01
     64   0.113059D+00  0.795009D-02  0.507131D-02 -0.718726D-03 -0.229964D-02
     65   0.525989D-01  0.103778D-01 -0.653798D-02  0.162621D-02  0.262633D-02
     66  -0.714043D-03 -0.636187D-04  0.000000D+00 -0.400549D-04 -0.364728D-04
     67   0.140714D+00  0.553398D-02 -0.108204D-01  0.472029D-02 -0.966343D-02
     68  -0.623933D-01 -0.112838D-01  0.766951D-02 -0.313540D-04 -0.237677D-02
     69  -0.495502D-03 -0.252622D-04  0.472914D-05 -0.114722D-04 -0.210547D-04
     70  -0.959424D-03 -0.373034D-04 -0.100390D-04 -0.330273D-04 -0.247650D-04
     71  -0.368794D-03 -0.584853D-04 -0.240189D-04 -0.388079D-04 -0.671971D-04
     72  -0.287671D+00 -0.294135D-02  0.228771D-03 -0.259100D-02 -0.803553D-02
                26            27            28            29            30 
      1   0.126522D-03  0.606478D-01 -0.296191D-01 -0.109778D+00 -0.160453D-01
      2   0.160064D-01  0.303579D-01 -0.694513D-01 -0.235187D-01 -0.774066D-02
      3   0.803688D-04  0.226535D-03  0.243394D-03  0.170785D-03  0.125613D-03
      4   0.202024D-01 -0.307244D-01 -0.108131D+00 -0.760647D-01 -0.290230D-01
      5  -0.484902D-02  0.421018D-01  0.955947D-01  0.849308D-01  0.429236D-01
      6  -0.504100D-04 -0.637453D-04 -0.935431D-04 -0.104961D-03 -0.533742D-04
      7   0.332368D-03  0.333302D-03  0.339904D-03  0.271601D-03  0.363480D-03
      8  -0.169820D-03 -0.532915D-04 -0.150864D-03 -0.182601D-03 -0.132970D-03
      9  -0.487552D-02 -0.145845D-01 -0.227024D-01 -0.301989D-01 -0.659035D-02
     10   0.648667D-01 -0.118934D+00 -0.716045D-01 -0.243067D-01  0.352324D-01
     11  -0.126885D+00  0.326292D-01 -0.293634D-01 -0.104806D+00 -0.132617D+00
     12  -0.141317D-04 -0.118969D-03 -0.301186D-04 -0.264492D-04  0.296643D-04
     13  -0.971879D-02  0.863593D-01  0.199681D-01 -0.120451D-01 -0.882662D-01
     14   0.914515D-01  0.412211D-01  0.265924D-01  0.860870D-01  0.924358D-01
     15   0.878260D-04  0.151208D-03 -0.102553D-05  0.000000D+00 -0.201683D-03
     16  -0.154803D-04 -0.220457D-03 -0.278932D-03 -0.184585D-03 -0.247132D-03
     17   0.217803D-03 -0.336050D-03 -0.261543D-04 -0.715276D-04  0.104224D-03
     18   0.279344D-01  0.581020D-01  0.608300D-01  0.620547D-01  0.414203D-01
     19  -0.571894D-01  0.230687D-01 -0.325322D-01 -0.331687D-01 -0.239207D+00
     20   0.914139D-01 -0.674372D-02 -0.313318D-01  0.102111D-01  0.770398D-01
     21   0.109047D-03  0.421475D-04  0.141386D-03  0.782714D-04  0.264385D-03
     22   0.979138D-02  0.536044D-01  0.108761D-02  0.340210D-01 -0.106010D-02
     23  -0.326397D-01 -0.125643D-01 -0.835499D-02 -0.623806D-01 -0.163682D+00
     24  -0.115709D-03  0.523647D-04  0.167458D-03  0.682938D-04  0.243849D-03
     25  -0.831794D-04  0.223917D-03  0.226633D-03  0.841508D-04  0.500791D-03
     26  -0.989395D-04  0.405210D-04  0.800250D-04  0.311538D-04 -0.821255D-04
     27   0.409161D-01  0.209259D-01 -0.739406D-02 -0.147347D-01  0.956618D-02
     28  -0.113181D-01 -0.205885D-01  0.143347D-01  0.171413D-01 -0.985711D-01
     29  -0.751331D-02 -0.844102D-02  0.202678D-01 -0.622479D-02  0.868075D-02
     30  -0.116562D-03 -0.120217D-03 -0.146017D-03 -0.123899D-03 -0.927722D-04
     31  -0.143584D-01 -0.214461D-01 -0.363813D-01 -0.524486D-01  0.218861D-01
     32  -0.727121D-03 -0.752340D-02 -0.156845D-01 -0.263563D-01 -0.386217D-02
     33   0.267223D-04  0.188356D-04  0.301055D-04  0.000000D+00  0.259044D-04
     34  -0.191482D-03 -0.114800D-03 -0.153217D-03 -0.107329D-03 -0.296963D-03
     35   0.649399D-04  0.753134D-04  0.140577D-03  0.849155D-04  0.942640D-04
     36  -0.147269D-02  0.893984D-02  0.857204D-02  0.550436D-02  0.611685D-02
     37  -0.834943D-02  0.102470D-01  0.407904D-01  0.827977D-01 -0.955750D-02
     38   0.984608D-02 -0.295533D-02  0.328206D-01  0.732972D-01  0.876986D-02
     39  -0.121795D-04 -0.303335D-04 -0.576734D-04 -0.132348D-04 -0.212388D-04
     40  -0.145019D-02  0.129571D-01  0.887980D-01  0.887276D-01  0.426446D-02
     41   0.125058D-02 -0.101255D-01 -0.514852D-01 -0.637978D-01 -0.657233D-02
     42  -0.416421D-04 -0.174638D-04  0.185790D-04  0.537246D-04 -0.287661D-04
     43  -0.453322D-04 -0.418321D-04 -0.733666D-04 -0.825492D-04 -0.568375D-04
     44   0.134438D-03  0.123098D-03  0.116108D-03  0.207704D-03  0.129969D-03
     45  -0.932816D-03 -0.737910D-03  0.624169D-02  0.181956D-01 -0.315459D-02
     46  -0.199405D-01  0.276451D-01  0.137735D-01  0.211587D-01  0.279559D-01
     47   0.904786D-02 -0.298453D-01  0.198414D-01  0.125104D-01  0.421167D-02
     48  -0.215091D-02 -0.260113D-03  0.445253D-02 -0.580256D-02  0.834100D-02
     49  -0.733970D-02 -0.532863D-01 -0.273889D-02  0.161587D-04 -0.395027D-02
     50  -0.296185D-01 -0.200325D-01 -0.324685D-02  0.154153D-02  0.855148D-02
     51  -0.168814D-01 -0.343648D-01 -0.180235D-01 -0.810313D-02 -0.268783D-01
     52  -0.132049D-01  0.354381D-02 -0.100778D-01 -0.875771D-02 -0.131819D-01
     53  -0.118664D-01  0.120607D-01 -0.118494D-01 -0.182143D-01 -0.379905D-02
     54  -0.288433D-01 -0.345068D-01 -0.215774D-01 -0.182678D-01 -0.179004D-01
     55  -0.197898D-01  0.276068D-01  0.136865D-01  0.211204D-01  0.280040D-01
     56   0.902838D-02 -0.296446D-01  0.199019D-01  0.125722D-01  0.419731D-02
     57   0.218078D-02  0.290973D-03 -0.445701D-02  0.579577D-02 -0.826398D-02
     58  -0.739091D-02 -0.531585D-01 -0.259521D-02  0.152125D-03 -0.408109D-02
     59  -0.296584D-01 -0.201035D-01 -0.333336D-02  0.143439D-02  0.862995D-02
     60   0.169924D-01  0.341872D-01  0.178971D-01  0.807061D-02  0.270545D-01
     61   0.131751D-01 -0.364860D-02  0.100629D-01  0.875684D-02  0.132326D-01
     62   0.117395D-01 -0.119211D-01  0.118594D-01  0.182325D-01  0.380025D-02
     63  -0.286960D-01 -0.344392D-01 -0.215359D-01 -0.182079D-01 -0.178378D-01
     64   0.515941D-01 -0.969286D-02  0.511707D-01  0.250351D-01  0.272189D+00
     65  -0.944423D-03  0.146428D-01  0.373148D-01  0.259588D-01  0.374585D-01
     66  -0.764160D-04 -0.300233D-04 -0.146498D-03 -0.786842D-04 -0.382668D-03
     67   0.102641D-01  0.569438D-02  0.399926D-01  0.176415D-01  0.100230D+00
     68   0.479067D-02 -0.129737D-01 -0.400823D-01 -0.214590D-01  0.215752D-01
     69  -0.177408D-04  0.363735D-04  0.480934D-05  0.165358D-04 -0.162156D-03
     70   0.328250D-04 -0.753340D-04 -0.461845D-04  0.195779D-04 -0.313992D-03
     71  -0.214826D-04  0.108598D-04 -0.169737D-03 -0.877862D-04 -0.114567D-03
     72  -0.403016D-02 -0.369929D-02 -0.243396D-02 -0.434525D-02 -0.116202D-01
                31            32            33            34            35 
      1   0.101311D+00  0.378495D+00  0.124716D+00 -0.351214D+00  0.153759D+00
      2   0.835916D-01  0.636527D-01  0.407603D-01  0.257647D+00  0.627770D-01
      3   0.220264D-03  0.318405D-03  0.562749D-03 -0.846173D-04 -0.933329D-04
      4   0.395540D-01  0.153066D+00  0.719553D-02 -0.298799D-02  0.146930D-01
      5   0.182282D-01  0.240986D+00  0.944219D-02 -0.667935D-01  0.159928D-01
      6  -0.497799D-04 -0.469330D-04  0.661741D-05 -0.999578D-04  0.660084D-04
      7   0.327022D-03  0.429554D-03  0.329383D-03  0.162003D-03  0.449776D-03
      8  -0.114736D-03 -0.169752D-03 -0.198745D-03 -0.381072D-04  0.414018D-04
      9   0.145257D-01  0.332719D-01 -0.258994D-01 -0.755499D-01  0.302715D-01
     10  -0.170511D+00 -0.153185D+00 -0.356680D+00  0.133746D+00 -0.254829D+00
     11  -0.100870D+00 -0.191784D-01 -0.106444D+00 -0.570104D-01 -0.908035D-01
     12  -0.274683D-04 -0.442963D-04 -0.756428D-03  0.102812D-03  0.543656D-03
     13  -0.495274D-01 -0.584170D-01 -0.114130D+00  0.904991D-01 -0.589816D-01
     14  -0.208661D-01 -0.270574D-01 -0.245491D+00 -0.111257D+00  0.585297D-02
     15   0.163353D-03  0.325027D-04  0.103305D-04  0.124355D-03  0.761044D-03
     16  -0.172568D-03 -0.206409D-03 -0.882624D-03 -0.103542D-03  0.553706D-03
     17   0.299267D-04 -0.922137D-04 -0.572498D-03 -0.105983D-03  0.775428D-03
     18  -0.198242D+00 -0.153359D-01 -0.213443D+00 -0.107565D-01 -0.515444D+00
     19  -0.226169D-01  0.140706D-02  0.693249D-01 -0.323105D-01  0.726755D-01
     20   0.190750D-01  0.214965D-01 -0.209421D-01  0.272754D-01  0.330354D-01
     21   0.324843D-04 -0.149675D-05  0.381083D-03 -0.532898D-04  0.147553D-03
     22   0.117904D-01  0.165698D-01 -0.313118D-01 -0.409755D-02 -0.379817D-01
     23  -0.789354D-01  0.155750D-02 -0.425835D-01  0.729615D-02 -0.881792D-01
     24  -0.859851D-04 -0.337196D-05 -0.558965D-03  0.982513D-05  0.169291D-03
     25   0.775510D-04  0.307759D-04  0.201524D-04 -0.320591D-04  0.257375D-04
     26  -0.357264D-04  0.232562D-04  0.131330D-03  0.766722D-04 -0.870232D-04
     27   0.408167D-01  0.111136D-02  0.385170D-01  0.918958D-02  0.846655D-01
     28  -0.380059D-01 -0.136127D+00 -0.104673D-01  0.153445D+00 -0.168409D-01
     29  -0.213676D-01 -0.317326D-01 -0.371715D-02 -0.226137D-01 -0.872954D-02
     30  -0.138472D-03 -0.183611D-03 -0.268865D-03 -0.845533D-04 -0.342784D-04
     31  -0.432481D-01 -0.184930D+00 -0.127210D-01  0.183294D+00 -0.116121D-01
     32  -0.408317D-01 -0.161217D+00  0.152322D-02 -0.155455D+00  0.127278D-01
     33   0.000000D+00  0.000000D+00 -0.294294D-04  0.275002D-03  0.439324D-04
     34  -0.147516D-03 -0.101121D-03 -0.124930D-03 -0.211490D-03 -0.220029D-03
     35   0.599914D-04  0.143454D-03  0.997566D-04  0.199814D-03  0.159195D-04
     36  -0.135015D-01 -0.489123D-02  0.230767D-01  0.895428D-01  0.809948D-02
     37  -0.677403D-02 -0.304602D-01  0.235109D-01  0.785854D-01  0.129863D-01
     38   0.740700D-02  0.189589D-01 -0.227843D-01 -0.219461D+00 -0.253803D-01
     39  -0.135567D-04 -0.520929D-04 -0.401644D-04  0.145730D-03  0.228295D-04
     40   0.847517D-02  0.553739D-01 -0.223628D-01 -0.269204D+00 -0.868531D-02
     41  -0.148866D-01 -0.402288D-01  0.236769D-01  0.248579D+00  0.201805D-01
     42  -0.246170D-04  0.177095D-04 -0.697685D-04 -0.300575D-03 -0.593656D-04
     43  -0.225705D-04 -0.853799D-04 -0.253971D-04  0.149772D-03 -0.356239D-04
     44   0.152992D-03  0.155572D-03  0.110809D-03 -0.109292D-03  0.928586D-04
     45  -0.832155D-02  0.970489D-03  0.624289D-02 -0.666246D-01  0.158102D-02
     46   0.668955D-01 -0.156465D-01  0.727341D-01  0.533262D-02  0.104516D-01
     47   0.246030D-02 -0.155354D-01  0.430947D-01  0.159423D-01  0.124324D-02
     48  -0.124215D-01 -0.796509D-02  0.321784D-01  0.421727D-02  0.103331D+00
     49   0.142079D-01  0.777717D-02  0.814949D-01  0.936169D-02  0.443154D-01
     50   0.713665D-01 -0.216291D-02  0.114858D+00  0.278290D-01  0.964931D-04
     51  -0.410251D-01 -0.301263D-02  0.578927D-01  0.133155D-01  0.206046D+00
     52  -0.120703D+00  0.411542D-02  0.895644D-01  0.100018D-01  0.949581D-01
     53  -0.186630D+00 -0.223014D-02  0.976042D-01  0.129193D-01  0.124021D+00
     54   0.882009D-01 -0.507607D-02  0.939278D-01  0.263000D-01  0.201659D+00
     55   0.668435D-01 -0.155936D-01  0.730869D-01  0.541542D-02  0.105036D-01
     56   0.235245D-02 -0.154825D-01  0.428590D-01  0.159335D-01  0.188797D-02
     57   0.124003D-01  0.794072D-02 -0.319878D-01 -0.424254D-02 -0.103773D+00
     58   0.140430D-01  0.779004D-02  0.811319D-01  0.940895D-02  0.452012D-01
     59   0.711398D-01 -0.218173D-02  0.114981D+00  0.278318D-01  0.803164D-03
     60   0.410398D-01  0.300201D-02 -0.572955D-01 -0.132999D-01 -0.207000D+00
     61   0.120667D+00 -0.416269D-02 -0.888453D-01 -0.100001D-01 -0.957439D-01
     62   0.186567D+00  0.220017D-02 -0.969836D-01 -0.128553D-01 -0.124950D+00
     63   0.886879D-01 -0.503812D-02  0.931013D-01  0.262630D-01  0.201920D+00
     64   0.285721D-02 -0.288892D-01  0.377466D-02  0.699876D-02  0.112946D-01
     65   0.735103D-02 -0.221791D-01  0.271735D-01 -0.177125D-01  0.259698D-01
     66  -0.521316D-04 -0.125373D-04 -0.690476D-04  0.000000D+00 -0.143763D-03
     67   0.470509D-02  0.276992D-02  0.107029D-01 -0.162741D-01  0.130512D-01
     68  -0.521454D-02 -0.969565D-02  0.235937D-01  0.219691D-01  0.325255D-01
     69  -0.184966D-04  0.997948D-05  0.440065D-04 -0.242486D-04 -0.268840D-04
     70  -0.259095D-04 -0.201430D-04 -0.356158D-04  0.336377D-04  0.122885D-04
     71  -0.294703D-04 -0.303442D-04 -0.191277D-03 -0.871106D-04  0.902540D-04
     72  -0.121659D-01 -0.501240D-02 -0.155232D-01  0.163563D-02 -0.127525D-01
                36 
      1  -0.362057D-01
      2  -0.245826D-01
      3   0.262005D-03
      4  -0.605918D-01
      5  -0.938731D-01
      6   0.162160D-03
      7   0.259642D-03
      8  -0.118922D-03
      9   0.209930D-01
     10   0.134582D-02
     11   0.622815D-02
     12  -0.784583D-04
     13   0.779550D-01
     14   0.760033D-01
     15   0.968683D-04
     16  -0.472155D-04
     17   0.106624D-03
     18   0.706790D-02
[...]
     21   0.332289D+00 -0.110416D+00 -0.643371D+00 -0.201120D+00  0.294184D+00
     22  -0.691842D-01 -0.340494D-02 -0.137136D-01 -0.562787D-02 -0.175409D-02
     23   0.928204D-01  0.108140D-01  0.136806D-01  0.130576D-01  0.173686D-03
     24   0.127766D-03  0.208008D-04  0.126046D-04 -0.158644D-04 -0.394011D+00
               156           157           158           159           160 
      1  -0.140620D-01  0.691472D-04  0.113371D+00  0.625104D-03  0.153960D+00
      2  -0.316435D-01  0.215076D-03 -0.117450D+00 -0.649423D-03 -0.415998D-01
      3   0.105214D-02  0.643647D-01  0.754015D-03 -0.855136D-01  0.295529D-03
      4  -0.480763D-02  0.160913D-03  0.112385D+00  0.715442D-03 -0.131487D+00
      5  -0.486924D-01  0.477530D-03  0.864661D-01  0.606692D-03 -0.849512D-01
      6  -0.905279D-01 -0.111717D+00 -0.896070D-01 -0.167119D+00 -0.900537D-01
      7   0.159797D+00 -0.106455D-02 -0.725025D-01 -0.376772D-03 -0.407477D-01
      8   0.291940D-01 -0.203040D-03  0.418978D-01  0.235051D-03  0.552316D-01
      9   0.730436D-03 -0.237209D-01  0.429143D-03  0.246898D-01  0.588352D-03
     10  -0.162296D+00  0.937695D-03 -0.107037D+00 -0.558521D-03  0.291248D-01
     11   0.376185D-01 -0.249327D-03 -0.357102D-01 -0.184151D-03  0.419656D-01
     12  -0.928395D-03 -0.676108D-01 -0.514010D-03  0.337365D-01 -0.302143D-03
     13   0.874978D-01 -0.508777D-03  0.169529D+00  0.659794D-03  0.364480D+00
     14   0.358687D-01 -0.149778D-03 -0.836052D-01 -0.138760D-03  0.787305D-01
     15   0.142880D-02  0.249596D+00 -0.472793D-02  0.664476D+00 -0.101168D-02
     16   0.144547D+00  0.226225D+00  0.268143D+00 -0.157781D+00 -0.711535D-01
     17   0.331872D+00  0.438917D+00  0.451736D+00  0.166666D+00  0.331093D+00
     18   0.529595D+00  0.447959D+00  0.542114D+00  0.702548D+00  0.530610D+00
     19  -0.228683D+00 -0.226613D+00 -0.107384D+00  0.157052D+00 -0.443386D+00
     20  -0.380374D+00 -0.440724D+00 -0.260693D+00 -0.167925D+00 -0.379883D+00
     21   0.539379D+00  0.449271D+00  0.527712D+00  0.704531D+00  0.540452D+00
     22   0.260987D+00  0.171277D-03 -0.168909D+00 -0.104872D-02  0.669339D-01
     23  -0.911842D-01  0.889891D-03  0.163287D+00  0.109826D-02 -0.657089D-01
     24  -0.188841D-02  0.866485D+00 -0.579412D-02  0.923114D-02 -0.585770D-02
               161           162           163           164           165 
      1  -0.127846D-03 -0.364404D-01 -0.128547D-03 -0.923096D-01 -0.276311D-01
      2   0.554628D-05  0.141280D-01  0.255183D-04  0.336017D-01  0.161120D-01
      3  -0.132313D+00  0.481486D-03 -0.677769D-01  0.307171D-03  0.219513D-03
      4   0.215382D-03  0.571524D-01  0.268849D-03  0.913972D-01 -0.780152D-01
      5   0.111993D-03 -0.138998D+00 -0.164664D-03 -0.693695D-01  0.941820D-01
      6   0.463673D-01 -0.902245D-01 -0.106378D+00 -0.899395D-01 -0.901360D-01
      7  -0.615249D-04 -0.604522D-01 -0.361143D-04  0.146510D-01 -0.258134D-02
      8   0.785072D-04  0.140484D+00  0.217783D-03  0.142958D-01 -0.262699D-01
      9  -0.318055D-01  0.668703D-03  0.334794D-01  0.474789D-03  0.639263D-03
     10   0.487847D-05  0.119512D-02  0.210427D-04  0.926940D-02 -0.288617D-02
     11  -0.633852D-05 -0.129811D-01 -0.576345D-05 -0.452788D-01 -0.622773D-01
     12   0.260782D-01 -0.342509D-03  0.922499D-02 -0.295561D-03 -0.269440D-03
     13  -0.460689D-03 -0.120086D-01  0.145056D-03  0.434376D+00  0.550586D+00
     14   0.142002D-03  0.305100D-01  0.249619D-03  0.375849D+00  0.382392D+00
     15   0.417852D+00 -0.203993D-02  0.159310D+00 -0.162386D-02 -0.126443D-02
     16   0.335485D+00  0.481325D+00  0.726374D+00 -0.841649D-01  0.501794D+00
     17   0.715891D+00  0.908598D-01 -0.298952D-01  0.457535D+00  0.319043D+00
     18   0.381194D+00  0.540487D+00  0.585930D+00  0.540783D+00  0.494497D+00
     19  -0.335733D+00  0.111299D+00 -0.727370D+00 -0.454908D+00  0.129453D+00
     20  -0.717902D+00 -0.620220D+00  0.269006D-01 -0.254037D+00 -0.390686D+00
     21   0.382139D+00  0.531042D+00  0.587259D+00  0.530532D+00  0.577456D+00
     22   0.565617D-03  0.113222D+00 -0.580142D-03 -0.264073D+00  0.162852D+00
     23  -0.675414D-03 -0.379018D-01  0.103686D-02  0.338256D+00 -0.218694D+00
     24  -0.669426D-01 -0.611113D-02  0.633877D-01 -0.529895D-02 -0.593719D-02
               166           167           168           169           170 
      1   0.270288D-01  0.736345D-02  0.117233D+00 -0.695542D-02  0.425093D-01
      2  -0.110901D-01  0.146546D-02  0.190766D+00  0.135365D-01 -0.719049D-01
      3   0.312917D-03  0.291671D-03  0.230639D-03  0.284964D-03  0.356873D-03
      4  -0.106944D+00 -0.378066D-01 -0.109464D-01 -0.322275D-01 -0.884710D-02
      5   0.194477D-02 -0.874362D-01 -0.155084D-01 -0.602735D-01 -0.111705D-01
      6  -0.899179D-01 -0.901057D-01 -0.900590D-01 -0.902780D-01 -0.901160D-01
      7   0.668904D-01  0.375780D-02  0.276867D-02  0.165552D-02 -0.253278D-03
      8  -0.658453D-02  0.345424D-02  0.156998D-02 -0.234014D-03  0.122372D-03
      9   0.451086D-03  0.566059D-03  0.584601D-03  0.583544D-03  0.585927D-03
     10  -0.357380D-02 -0.104041D-02 -0.638178D-01  0.362915D-03  0.209251D-02
     11   0.750433D-02  0.230063D-02 -0.134158D+00  0.198715D-03  0.386154D-02
     12  -0.323124D-03 -0.316784D-03 -0.258189D-03 -0.315800D-03 -0.316960D-03
     13  -0.100824D-01 -0.527951D-01 -0.180925D+00  0.920517D-01 -0.499247D+00
     14  -0.460912D-01 -0.413014D-01  0.299927D-01 -0.151050D+00  0.790728D+00
     15  -0.131322D-02 -0.138557D-02 -0.148371D-02 -0.125888D-02 -0.206177D-02
     16   0.395516D+00  0.405376D+00  0.128386D+00  0.362660D+00  0.221961D+00
     17   0.125731D+00  0.799137D+00  0.346811D+00  0.706008D+00  0.419635D+00
     18   0.565536D+00  0.102967D+00  0.544825D+00  0.108045D+01  0.636230D+00
     19   0.242966D-01  0.330871D-01 -0.243569D+00 -0.935785D-02 -0.149956D+00
     20  -0.585842D+00  0.882000D-01 -0.363558D+00 -0.503698D-02 -0.290934D+00
     21   0.505822D+00  0.969416D+00  0.526711D+00 -0.624418D-02  0.436006D+00
     22  -0.463069D+00 -0.663139D-01 -0.534627D-03 -0.108433D-01 -0.275756D-02
     23   0.600496D+00  0.862693D-01  0.426297D-02  0.712952D-02  0.650653D-02
     24  -0.516396D-02 -0.555390D-02 -0.566086D-02 -0.566906D-02 -0.569753D-02
               171           172           173           174           175 
      1  -0.181132D-04 -0.551027D-03 -0.145867D-01 -0.455547D-03  0.112846D+00
      2   0.153305D-04  0.870557D-03 -0.309347D-01  0.923852D-03 -0.116742D+00
      3   0.591198D-03  0.116277D+00  0.755370D-03  0.640680D-01  0.457244D-03
      4   0.220619D-03 -0.194885D-02 -0.691344D-02 -0.194490D-02  0.110280D+00
      5   0.357962D-03  0.182033D-02 -0.472404D-01  0.192954D-02  0.879181D-01
      6  -0.180125D+00 -0.953782D-01 -0.458203D-03 -0.216469D-01  0.462792D-03
      7  -0.914837D-05 -0.443776D-01  0.115839D+00 -0.450221D-01 -0.116460D+00
      8  -0.702408D-05 -0.421226D-01 -0.127875D-01 -0.421846D-01 -0.837888D-04
      9   0.117136D-02  0.883850D-01  0.249767D-03 -0.242016D-01 -0.515262D-04
     10  -0.452467D-05  0.771999D-03 -0.162038D+00  0.119582D-02 -0.106779D+00
     11  -0.435747D-05 -0.898927D-04  0.377073D-01 -0.160474D-03 -0.356214D-01
     12  -0.630303D-03 -0.745326D-01 -0.612417D-03 -0.672948D-01 -0.198032D-03
     13   0.128035D-03 -0.828451D-03  0.870278D-01 -0.978766D-03  0.169059D+00
     14  -0.189480D-03 -0.273789D-02  0.330933D-01 -0.292516D-02 -0.863806D-01
     15  -0.275604D-02  0.405864D+00  0.280865D-02  0.250976D+00 -0.334809D-02
     16   0.370621D+00  0.127814D+00 -0.435218D-01  0.381562D-01  0.800747D-01
     17   0.708338D+00  0.152165D+00 -0.189976D-01  0.880468D-01  0.100866D+00
     18   0.107009D+01 -0.239420D+00 -0.278023D-02 -0.844164D-01  0.973830D-02
     19  -0.373056D+00 -0.133027D+00 -0.448959D-01 -0.428259D-01  0.764032D-01
     20  -0.712368D+00 -0.144978D+00 -0.208698D-01 -0.812202D-01  0.988114D-01
     21   0.107313D+01 -0.245088D+00  0.106981D-03 -0.900012D-01 -0.115604D-01
     22   0.112751D-03  0.727859D+00  0.990600D+00  0.729785D+00  0.560705D+00
     23  -0.445097D-04  0.633454D+00  0.542097D+00  0.634171D+00  0.796568D+00
     24  -0.113792D-01 -0.390041D+00  0.208181D-02  0.870455D+00 -0.182389D-02
               176           177           178           179           180 
      1   0.100410D-03  0.153436D+00 -0.652540D-03 -0.369651D-01 -0.653241D-03
      2   0.593526D-04 -0.408911D-01  0.714322D-03  0.148367D-01  0.734294D-03
      3  -0.858104D-01 -0.124245D-05 -0.132610D+00  0.184714D-03 -0.680737D-01
      4  -0.139037D-02 -0.133593D+00 -0.189043D-02  0.550466D-01 -0.183696D-02
      5   0.205870D-02 -0.834992D-01  0.156401D-02 -0.137546D+00  0.128735D-02
      6  -0.770494D-01  0.160457D-04  0.136437D+00 -0.154709D-03 -0.163087D-01
      7  -0.443343D-01 -0.847052D-01 -0.440190D-01 -0.104410D+00 -0.439936D-01
      8  -0.417465D-01  0.132501D-01 -0.419030D-01  0.985020D-01 -0.417638D-01
      9   0.242091D-01  0.107683D-03 -0.322862D-01  0.188034D-03  0.329987D-01
     10  -0.300392D-03  0.293829D-01  0.263007D-03  0.145325D-02  0.279172D-03
     11  -0.952982D-04  0.420544D-01  0.825141D-04 -0.128923D-01  0.830892D-04
     12   0.340525D-01  0.138357D-04  0.263942D-01 -0.265307D-04  0.954097D-02
     13   0.189804D-03  0.364010D+00 -0.930678D-03 -0.124786D-01 -0.324933D-03
     14  -0.291414D-02  0.759551D-01 -0.263338D-02  0.277347D-01 -0.252576D-02
     15   0.665856D+00  0.368164D-03  0.419231D+00 -0.660087D-03  0.160690D+00
     16  -0.345850D+00 -0.259222D+00  0.147417D+00  0.293257D+00  0.538306D+00
     17  -0.184204D+00 -0.197773D-01  0.365021D+00 -0.260010D+00 -0.380765D+00
     18   0.170173D+00 -0.176514D-02 -0.151181D+00  0.811126D-02  0.535552D-01
     19   0.340839D+00 -0.259599D+00 -0.151946D+00  0.295087D+00 -0.543583D+00
     20   0.191579D+00 -0.203787D-01 -0.358398D+00 -0.260716D+00  0.386405D+00
     21   0.165259D+00  0.117960D-02 -0.157133D+00 -0.823070D-02  0.479867D-01
     22   0.728565D+00  0.796547D+00  0.730179D+00  0.842835D+00  0.729033D+00
     23   0.634379D+00  0.567572D+00  0.632605D+00  0.595379D+00  0.634318D+00
     24   0.132014D-01 -0.188747D-02 -0.629723D-01 -0.214091D-02  0.673579D-01
               181           182           183           184           185 
      1  -0.928343D-01 -0.281558D-01  0.265041D-01  0.683875D-02  0.116708D+00
      2   0.343105D-01  0.168208D-01 -0.103813D-01  0.217424D-02  0.191475D+00
      3   0.104000D-04 -0.772586D-04  0.161457D-04 -0.510008D-05 -0.661324D-04
      4   0.892914D-01 -0.801210D-01 -0.109050D+00 -0.399124D-01 -0.130522D-01
      5  -0.679175D-01  0.956341D-01  0.339678D-02 -0.859842D-01 -0.140564D-01
      6   0.130273D-03 -0.662757D-04  0.151813D-03 -0.359188D-04  0.106959D-04
      7  -0.293065D-01 -0.465389D-01  0.229329D-01 -0.401997D-01 -0.411889D-01
      8  -0.276857D-01 -0.682514D-01 -0.485661D-01 -0.385273D-01 -0.404116D-01
      9  -0.588051D-05  0.158594D-03 -0.295827D-04  0.853902D-04  0.103932D-03
     10   0.952753D-02 -0.262804D-02 -0.331567D-02 -0.782285D-03 -0.635597D-01
     11  -0.451899D-01 -0.621885D-01  0.759318D-02  0.238949D-02 -0.134069D+00
     12   0.204176D-04  0.465384D-04 -0.714583D-05  0.000000D+00  0.577892D-04
     13   0.433906D+00  0.550116D+00 -0.105524D-01 -0.532651D-01 -0.181395D+00
     14   0.373073D+00  0.379616D+00 -0.488666D-01 -0.440768D-01  0.272173D-01
     15  -0.244013D-03  0.115411D-03  0.666255D-04 -0.573043D-05 -0.103868D-03
     16  -0.272233D+00  0.313725D+00  0.207448D+00  0.217308D+00 -0.596827D-01
     17   0.106665D+00 -0.318270D-01 -0.225139D+00  0.448267D+00 -0.405893D-02
     18   0.840762D-02 -0.378786D-01  0.331606D-01 -0.429408D+00  0.124498D-01
     19  -0.271120D+00  0.313240D+00  0.208084D+00  0.216874D+00 -0.597817D-01
     20   0.105467D+00 -0.311815D-01 -0.226338D+00  0.447704D+00 -0.405428D-02
     21  -0.874057D-02  0.381836D-01 -0.334505D-01  0.430144D+00 -0.125618D-01
     22   0.465540D+00  0.892466D+00  0.266544D+00  0.663299D+00  0.729079D+00
     23   0.971537D+00  0.414587D+00  0.123378D+01  0.719550D+00  0.637544D+00
     24  -0.132872D-02 -0.196697D-02 -0.119374D-02 -0.158367D-02 -0.169064D-02
               186           187           188           189 
      1  -0.748012D-02  0.419846D-01 -0.542807D-03 -0.106750D-02
      2   0.142452D-01 -0.711961D-01  0.724106D-03  0.143288D-02
      3  -0.118072D-04  0.601020D-04  0.294427D-03 -0.234481D-05
      4  -0.343333D-01 -0.109529D-01 -0.188519D-02 -0.399100D-02
      5  -0.588214D-01 -0.971850D-02  0.180997D-02  0.326199D-02
      6  -0.208232D-03 -0.462112D-04 -0.900551D-01  0.146000D-04
      7  -0.423020D-01 -0.442108D-01 -0.439667D-01 -0.879242D-01
      8  -0.422156D-01 -0.418592D-01 -0.419886D-01 -0.839701D-01
      9   0.102875D-03  0.105258D-03  0.690689D-03  0.210020D-03
     10   0.621044D-03  0.235064D-02  0.253604D-03  0.511733D-03
     11   0.287568D-03  0.395039D-02  0.844952D-04  0.173348D-03
     12   0.000000D+00  0.000000D+00 -0.314324D-03  0.165403D-05
     13   0.915817D-01 -0.499717D+00 -0.341955D-03 -0.811944D-03
     14  -0.153826D+00  0.787953D+00 -0.296486D-02 -0.574024D-02
     15   0.120959D-03 -0.681929D-03 -0.137620D-02  0.364877D-05
     16   0.174591D+00  0.338925D-01  0.182553D+00 -0.551554D-02
     17   0.355138D+00  0.687655D-01  0.357468D+00  0.659835D-02
     18   0.548079D+00  0.103855D+00  0.537717D+00  0.534174D-02
     19   0.174429D+00  0.338316D-01 -0.189269D+00 -0.548175D-02
     20   0.354467D+00  0.685702D-01 -0.352864D+00  0.663966D-02
     21  -0.545517D+00 -0.103266D+00  0.533860D+00 -0.541199D-02
     22   0.718770D+00  0.726856D+00  0.729726D+00  0.145934D+01
     23   0.640410D+00  0.639787D+00  0.633236D+00  0.126652D+01
     24  -0.169884D-02 -0.172730D-02 -0.740897D-02 -0.343874D-02

 Leave Link  717 at Sun Jun 27 12:20:53 2021, MaxMem=   104857600 cpu:              15.4 elap:              15.4

 ----------------------------------------------------------------------

 Electric dipole moment (input orientation):
 (Debye = 10**-18 statcoulomb cm , SI units = C m)
                  (au)            (Debye)         (10**-30 SI)
   Tot        0.749514D+00      0.190508D+01      0.635465D+01
   x         -0.336321D+00     -0.854844D+00     -0.285145D+01
   y          0.669820D+00      0.170251D+01      0.567897D+01
   z          0.951186D-03      0.241767D-02      0.806449D-02

 Dipole polarizability, Alpha (input orientation).
 (esu units = cm**3 , SI units = C**2 m**2 J**-1)
 Alpha(0;0):
               (au)            (10**-24 esu)      (10**-40 SI)
   iso        0.139358D+02      0.206507D+01      0.229771D+01
   aniso      0.110344D+02      0.163513D+01      0.181933D+01
   xx         0.145176D+02      0.215129D+01      0.239363D+01
   yx         0.241226D+01      0.357461D+00      0.397729D+00
   yy         0.195197D+02      0.289252D+01      0.321837D+01
   zx        -0.190293D-02     -0.281986D-03     -0.313752D-03
   zy        -0.569169D-02     -0.843422D-03     -0.938434D-03
   zz         0.777011D+01      0.115141D+01      0.128112D+01

 First dipole hyperpolarizability, Beta (input orientation).
 ||, _|_  parallel and perpendicular components, (z) with respect to z axis,
 vector components x,y,z.  Values do not include the 1/n! factor of 1/2.
 (esu units = statvolt**-1 cm**4 , SI units = C**3 m**3 J**-2)
 Beta(0;0,0):
               (au)            (10**-30 esu)      (10**-50 SI)
   || (z)     0.294035D-02      0.254023D-04      0.942782D-05
   _|_(z)     0.980116D-03      0.846744D-05      0.314261D-05
   x         -0.518961D+02     -0.448342D+00     -0.166398D+00
   y          0.467972D+02      0.404291D+00      0.150049D+00
   z          0.147017D-01      0.127012D-03      0.471391D-04
   ||         0.139760D+02      0.120741D+00      0.448120D-01
   xxx       -0.132421D+02     -0.114401D+00     -0.424590D-01
   xxy        0.146481D+00      0.126548D-02      0.469672D-03
   yxy       -0.602324D+01     -0.520361D-01     -0.193127D-01
   yyy        0.100369D+02      0.867106D-01      0.321818D-01
   xxz       -0.988045D-02     -0.853594D-04     -0.316803D-04
   yxz       -0.113426D-02     -0.979909D-05     -0.363683D-05
   yyz        0.809830D-02      0.699630D-04      0.259661D-04
   zxz        0.196665D+01      0.169903D-01      0.630579D-02
   zyz        0.541573D+01      0.467877D-01      0.173648D-01
   zzz        0.668273D-02      0.577335D-04      0.214272D-04

 ----------------------------------------------------------------------

 Dipole orientation:
     6         -0.90929578         -0.45371680          1.56712909
     6          1.54201474          0.77431637          0.55133573
     8          1.56728285          0.78479898         -2.15372966
     8         -2.50052716         -1.25566861          0.11117272
     1         -1.11220836         -0.55116721          3.63785951
     1          3.16907078         -0.27618056          1.29297204
     1          1.67345866          2.70763150          1.29001192
     1         -0.06067194         -0.03693889         -2.59116679

 Electric dipole moment (dipole orientation):
 (Debye = 10**-18 statcoulomb cm , SI units = C m)
                  (au)            (Debye)         (10**-30 SI)
   Tot        0.749514D+00      0.190508D+01      0.635465D+01
   x          0.000000D+00      0.000000D+00      0.000000D+00
   y          0.000000D+00      0.000000D+00      0.000000D+00
   z          0.749514D+00      0.190508D+01      0.635465D+01

 Dipole polarizability, Alpha (dipole orientation).
 (esu units = cm**3 , SI units = C**2 m**2 J**-1)
 Alpha(0;0):
               (au)            (10**-24 esu)      (10**-40 SI)
   iso        0.139358D+02      0.206507D+01      0.229771D+01
   aniso      0.110344D+02      0.163513D+01      0.181933D+01
   xx         0.155016D+02      0.229710D+01      0.255587D+01
   yx         0.389065D+01      0.576535D+00      0.641482D+00
   yy         0.972800D+01      0.144154D+01      0.160393D+01
   zx         0.307333D+01      0.455420D+00      0.506723D+00
   zy         0.156038D+01      0.231225D+00      0.257273D+00
   zz         0.165778D+02      0.245658D+01      0.273332D+01

 First dipole hyperpolarizability, Beta (dipole orientation).
 ||, _|_  parallel and perpendicular components, (z) with respect to z axis,
 vector components x,y,z.  Values do not include the 1/n! factor of 1/2.
 (esu units = statvolt**-1 cm**4 , SI units = C**3 m**3 J**-2)
 Beta(0;0,0):
               (au)            (10**-30 esu)      (10**-50 SI)
   || (z)     0.130216D+02      0.112497D+00      0.417520D-01
   _|_(z)     0.434054D+01      0.374989D-01      0.139173D-01
   x         -0.227113D+02     -0.196208D+00     -0.728206D-01
   y         -0.113275D+02     -0.978607D-01     -0.363200D-01
   z          0.651081D+02      0.562484D+00      0.208760D+00
   ||         0.139760D+02      0.120741D+00      0.448120D-01
   xxx       -0.605851D+01     -0.523408D-01     -0.194258D-01
   xxy       -0.678868D+01     -0.586489D-01     -0.217670D-01
   yxy       -0.608683D+00     -0.525855D-02     -0.195166D-02
   yyy        0.346246D+01      0.299130D-01      0.111019D-01
   xxz        0.306795D+01      0.265047D-01      0.983696D-02
   yxz       -0.459734D+00     -0.397174D-02     -0.147407D-02
   yyz        0.371999D+01      0.321378D-01      0.119276D-01
   zxz       -0.903236D+00     -0.780325D-02     -0.289610D-02
   zyz       -0.449610D+00     -0.388428D-02     -0.144161D-02
   zzz        0.149148D+02      0.128852D+00      0.478222D-01

 ----------------------------------------------------------------------

 This type of calculation cannot be archived.


 VIRTUE IS LEARNED AT YOUR MOTHER'S KNEE,
 VICES ARE PICKED UP AT SOME OTHER JOINT.
 Job cpu time:       0 days  0 hours  0 minutes 15.7 seconds.
 Elapsed time:       0 days  0 hours  0 minutes 15.8 seconds.
 File lengths (MBytes):  RWF=     72 Int=      0 D2E=      0 Chk=      8 Scr=      8
 Normal termination of Gaussian 16 at Sun Jun 27 12:20:53 2021.
