CH4                                                                     
Freq      RHF                                                         STO-3G              
Number of atoms                            I                5
Info1-9                                    I   N=           9
          13          12           0           0           0         100
           6           1           2
Charge                                     I                0
Multiplicity                               I                1
Number of electrons                        I               10
Number of alpha electrons                  I                5
Number of beta electrons                   I                5
Number of basis functions                  I                9
Number of independent functions            I                9
Number of point charges in /Mol/           I                0
Number of translation vectors              I                0
Atomic numbers                             I   N=           5
           6           1           1           1           1
Nuclear charges                            R   N=           5
  6.00000000E+00  1.00000000E+00  1.00000000E+00  1.00000000E+00  1.00000000E+00
Current cartesian coordinates              R   N=          15
  0.00000000E+00  0.00000000E+00  0.00000000E+00  0.00000000E+00  0.00000000E+00
  2.04660428E+00  0.00000000E+00 -1.92955701E+00 -6.82201433E-01  1.67104538E+00
  9.64778512E-01 -6.82201433E-01 -1.67104538E+00  9.64778512E-01 -6.82201433E-01
Force Field                                I                0
Int Atom Types                             I   N=           5
           0           0           0           0           0
MM charges                                 R   N=           5
  0.00000000E+00  0.00000000E+00  0.00000000E+00  0.00000000E+00  0.00000000E+00
Integer atomic weights                     I   N=           5
          12           1           1           1           1
Real atomic weights                        R   N=           5
  1.20000000E+01  1.00782504E+00  1.00782504E+00  1.00782504E+00  1.00782504E+00
Atom fragment info                         I   N=           5
           0           0           0           0           0
Atom residue num                           I   N=           5
           0           0           0           0           0
Nuclear spins                              I   N=           5
           0           1           1           1           1
Nuclear ZEff                               R   N=           5
 -3.60000000E+00 -1.00000000E+00 -1.00000000E+00 -1.00000000E+00 -1.00000000E+00
Nuclear QMom                               R   N=           5
  0.00000000E+00  0.00000000E+00  0.00000000E+00  0.00000000E+00  0.00000000E+00
Nuclear GFac                               R   N=           5
  0.00000000E+00  2.79284600E+00  2.79284600E+00  2.79284600E+00  2.79284600E+00
MicOpt                                     I   N=           5
          -1          -1          -1          -1          -1
Number of contracted shells                I                6
Number of primitive shells                 I               18
Pure/Cartesian d shells                    I                0
Pure/Cartesian f shells                    I                0
Highest angular momentum                   I                1
Largest degree of contraction              I                3
Shell types                                I   N=           6
           0          -1           0           0           0           0
Number of primitives per shell             I   N=           6
           3           3           3           3           3           3
Shell to atom map                          I   N=           6
           1           1           2           3           4           5
Primitive exponents                        R   N=          18
  7.16168373E+01  1.30450963E+01  3.53051216E+00  2.94124936E+00  6.83483096E-01
  2.22289916E-01  3.42525091E+00  6.23913730E-01  1.68855404E-01  3.42525091E+00
  6.23913730E-01  1.68855404E-01  3.42525091E+00  6.23913730E-01  1.68855404E-01
  3.42525091E+00  6.23913730E-01  1.68855404E-01
Contraction coefficients                   R   N=          18
  1.54328967E-01  5.35328142E-01  4.44634542E-01 -9.99672292E-02  3.99512826E-01
  7.00115469E-01  1.54328967E-01  5.35328142E-01  4.44634542E-01  1.54328967E-01
  5.35328142E-01  4.44634542E-01  1.54328967E-01  5.35328142E-01  4.44634542E-01
  1.54328967E-01  5.35328142E-01  4.44634542E-01
P(S=P) Contraction coefficients            R   N=          18
  0.00000000E+00  0.00000000E+00  0.00000000E+00  1.55916275E-01  6.07683719E-01
  3.91957393E-01  0.00000000E+00  0.00000000E+00  0.00000000E+00  0.00000000E+00
  0.00000000E+00  0.00000000E+00  0.00000000E+00  0.00000000E+00  0.00000000E+00
  0.00000000E+00  0.00000000E+00  0.00000000E+00
Coordinates of each shell                  R   N=          18
  0.00000000E+00  0.00000000E+00  0.00000000E+00  0.00000000E+00  0.00000000E+00
  0.00000000E+00  0.00000000E+00  0.00000000E+00  2.04660428E+00  0.00000000E+00
 -1.92955701E+00 -6.82201433E-01  1.67104538E+00  9.64778512E-01 -6.82201433E-01
 -1.67104538E+00  9.64778512E-01 -6.82201433E-01
Constraint Structure                       R   N=          15
  0.00000000E+00  0.00000000E+00  0.00000000E+00  0.00000000E+00  0.00000000E+00
  2.04660428E+00  0.00000000E+00 -1.92955701E+00 -6.82201433E-01  1.67104538E+00
  9.64778512E-01 -6.82201433E-01 -1.67104538E+00  9.64778512E-01 -6.82201433E-01
Num ILSW                                   I              100
ILSW                                       I   N=         100
           0           0           0           0           2           0
           0           0           0           0           0          -1
           0           0           0           0           0           0
           0           0           0           0           1           0
           1           1           0           0           0           0
           0           0      100000           0          -1           0
           0           0           0           0           0           0
           0           0           0           1           0           0
           0           0           1           0           0           0
           0           0           4          40           0           0
           0           0           0           0           0           0
           0           0           0           0           0           0
           0           0           0           0           0           0
           0           0           0           0           0           0
           0           0           0           0           0           0
           0           0           0           0           0           0
           0           0           0           0
Num RLSW                                   I               40
RLSW                                       R   N=          40
  1.00000000E+00  1.00000000E+00  1.00000000E+00  1.00000000E+00  1.00000000E+00
  0.00000000E+00  0.00000000E+00  1.00000000E+00  0.00000000E+00  0.00000000E+00
  0.00000000E+00  0.00000000E+00  1.00000000E+00  0.00000000E+00  0.00000000E+00
  0.00000000E+00  0.00000000E+00  1.00000000E+00  0.00000000E+00  0.00000000E+00
  0.00000000E+00  0.00000000E+00  1.00000000E+00  0.00000000E+00  0.00000000E+00
  0.00000000E+00  0.00000000E+00  1.00000000E+00  0.00000000E+00  0.00000000E+00
  0.00000000E+00  0.00000000E+00  1.00000000E+00  0.00000000E+00  0.00000000E+00
  0.00000000E+00  0.00000000E+00  0.00000000E+00  1.00000000E+00  1.00000000E+00
MxBond                                     I                4
NBond                                      I   N=           5
           4           1           1           1           1
IBond                                      I   N=          20
           2           3           4           5           1           0
           0           0           1           0           0           0
           1           0           0           0           1           0
           0           0
RBond                                      R   N=          20
  1.00000000E+00  1.00000000E+00  1.00000000E+00  1.00000000E+00  1.00000000E+00
  0.00000000E+00  0.00000000E+00  0.00000000E+00  1.00000000E+00  0.00000000E+00
  0.00000000E+00  0.00000000E+00  1.00000000E+00  0.00000000E+00  0.00000000E+00
  0.00000000E+00  1.00000000E+00  0.00000000E+00  0.00000000E+00  0.00000000E+00
Virial Ratio                               R      2.006621266751060E+00
SCF Energy                                 R     -3.972686367726298E+01
Total Energy                               R     -3.972686367726298E+01
RMS Force                                  R      2.799389612246378E-06
RMS Density                                R      7.783668054488530E-10
External E-field                           R   N=          35
  0.00000000E+00  0.00000000E+00  0.00000000E+00  0.00000000E+00  0.00000000E+00
  0.00000000E+00  0.00000000E+00  0.00000000E+00  0.00000000E+00  0.00000000E+00
  0.00000000E+00  0.00000000E+00  0.00000000E+00  0.00000000E+00  0.00000000E+00
  0.00000000E+00  0.00000000E+00  0.00000000E+00  0.00000000E+00  0.00000000E+00
  0.00000000E+00  0.00000000E+00  0.00000000E+00  0.00000000E+00  0.00000000E+00
  0.00000000E+00  0.00000000E+00  0.00000000E+00  0.00000000E+00  0.00000000E+00
  0.00000000E+00  0.00000000E+00  0.00000000E+00  0.00000000E+00  0.00000000E+00
IOpCl                                      I                0
IROHF                                      I                0
Alpha Orbital Energies                     R   N=           9
 -1.10296872E+01 -9.12091714E-01 -5.20492837E-01 -5.20492836E-01 -5.20492835E-01
  7.19216522E-01  7.19216523E-01  7.19216526E-01  7.61049594E-01
Alpha MO coefficients                      R   N=          81
  9.91925515E-01  3.83553357E-02  1.04870914E-17  3.31652549E-11 -1.14724890E-10
 -7.00701732E-03 -7.00701739E-03 -7.00701739E-03 -7.00701739E-03 -2.21430594E-01
  6.27588423E-01  1.33002925E-16  7.04402410E-10 -3.02557862E-09  1.80567343E-01
  1.80567346E-01  1.80567346E-01  1.80567346E-01  6.98051364E-10 -2.68734771E-09
  3.17952889E-07  5.47457529E-01 -1.65632990E-01 -1.50884834E-01 -4.19894546E-01
  2.85389926E-01  2.85389453E-01 -9.69801552E-10  4.33675397E-09  1.39872298E-07
  1.65632990E-01  5.47457529E-01  4.98711267E-01 -3.08492674E-01 -9.51091906E-02
 -9.51093987E-02 -3.38363217E-16  1.73118317E-15  5.71965064E-01 -3.44834293E-07
 -4.18043986E-08 -3.80820862E-08  3.08858484E-07  4.25424485E-01 -4.25424755E-01
 -1.27554415E-14  7.75584755E-14  1.10635364E+00 -1.05430733E-07  9.95178076E-07
 -9.57896221E-07  2.23621466E-07 -8.69492430E-01  8.69493165E-01 -2.80371924E-08
  1.76105771E-07 -9.67127234E-07  1.70135786E-01  1.09319358E+00 -1.05223986E+00
  5.05142884E-01  2.73549102E-01  2.73547582E-01  1.00913054E-08 -6.43563309E-08
  2.57215769E-07  1.09319358E+00 -1.70135787E-01  1.63762097E-01  9.37473857E-01
 -5.50618127E-01 -5.50617723E-01 -2.52318461E-01  1.63280216E+00  6.13668071E-14
  2.71057168E-08 -1.35272765E-07 -6.67718956E-01 -6.67719104E-01 -6.67719137E-01
 -6.67719137E-01
Total SCF Density                          R   N=          45
  2.06589547E+00 -2.01843282E-01  7.90676721E-01 -2.52562733E-16  1.65238280E-15
  6.54288070E-01  1.96887125E-10 -6.19104694E-10  2.18883526E-15  6.54288068E-01
 -1.80776745E-10  1.83216724E-09 -9.80756739E-16  3.43561922E-10  6.54288067E-01
 -9.38671478E-02  2.26106441E-01 -1.72601231E-15 -1.06788117E-11  5.96029487E-01
  6.08265650E-01 -9.38671479E-02  2.26106438E-01 -1.11946310E-15 -5.61941990E-01
 -1.98676497E-01 -1.15678778E-01  6.08265649E-01 -9.38671473E-02  2.26106437E-01
  4.86656040E-01  2.80970995E-01 -1.98676495E-01 -1.15678777E-01 -1.15678778E-01
  6.08265650E-01 -9.38671473E-02  2.26106437E-01 -4.86656040E-01  2.80970995E-01
 -1.98676495E-01 -1.15678777E-01 -1.15678778E-01 -1.15678779E-01  6.08265650E-01
QEq coupling tensors                       R   N=          30
  3.48791218E-09  4.24660307E-15 -1.17343764E-09  1.38777878E-17  7.27096425E-10
 -2.31443664E-09  1.62947953E-01  1.35308431E-16  1.62947953E-01  5.55111512E-17
 -5.46922924E-12 -3.25895906E-01  1.62947959E-01 -3.40005801E-16 -2.71579931E-01
 -1.53089347E-16 -1.53628811E-01  1.08631971E-01 -1.62947956E-01 -1.88156096E-01
  5.43159850E-02  1.33046452E-01  7.68144055E-02  1.08631971E-01 -1.62947956E-01
  1.88156096E-01  5.43159850E-02 -1.33046452E-01  7.68144055E-02  1.08631971E-01
Mulliken Charges                           R   N=           5
 -2.62628196E-01  6.56570487E-02  6.56570494E-02  6.56570491E-02  6.56570491E-02
ONIOM Charges                              I   N=          16
           0           0           0           0           0           0
           0           0           0           0           0           0
           0           0           0           0
ONIOM Multiplicities                       I   N=          16
           1           0           0           0           0           0
           0           0           0           0           0           0
           0           0           0           0
Atom Layers                                I   N=           5
           1           1           1           1           1
Atom Modifiers                             I   N=           5
           0           0           0           0           0
Force Field                                I                0
Int Atom Modified Types                    I   N=           5
           0           0           0           0           0
Link Atoms                                 I   N=           5
           0           0           0           0           0
Atom Modified MM Charges                   R   N=           5
  0.00000000E+00  0.00000000E+00  0.00000000E+00  0.00000000E+00  0.00000000E+00
Link Distances                             R   N=          20
  0.00000000E+00  0.00000000E+00  0.00000000E+00  0.00000000E+00  0.00000000E+00
  0.00000000E+00  0.00000000E+00  0.00000000E+00  0.00000000E+00  0.00000000E+00
  0.00000000E+00  0.00000000E+00  0.00000000E+00  0.00000000E+00  0.00000000E+00
  0.00000000E+00  0.00000000E+00  0.00000000E+00  0.00000000E+00  0.00000000E+00
Cartesian Gradient                         R   N=          15
 -9.22872889E-16 -1.87299195E-09 -2.72728094E-09  2.80157841E-16 -1.69271814E-11
  5.42518176E-06  1.03216047E-16 -5.10923910E-06 -1.80704012E-06  4.42430652E-06
  2.55556451E-06 -1.80770718E-06 -4.42430652E-06  2.55556451E-06 -1.80770718E-06
Cartesian Force Constants                  R   N=         120
  8.38975538E-01  9.49345174E-16  8.38975546E-01 -4.29824988E-16  2.85252979E-11
  8.38975533E-01 -7.83094869E-02 -2.10799617E-16  2.03743898E-16  6.79944837E-02
 -1.93384549E-16 -7.83094872E-02 -7.27070506E-11  7.37022095E-17  6.79944840E-02
  2.60620542E-16 -3.22532310E-11 -4.72612673E-01 -2.36801609E-16  1.89729711E-11
  4.89280321E-01 -7.83094850E-02 -2.56868469E-16 -2.92829024E-17 -1.11895178E-03
  6.35114681E-17  3.70129782E-17  6.79944821E-02 -1.80856830E-16 -4.28801219E-01
 -1.23917542E-01 -1.11725118E-17  7.99562058E-03  7.31677931E-03  1.37901434E-16
  4.42470795E-01  2.85220256E-18 -1.23917543E-01 -1.22120953E-01 -4.66438308E-18
 -4.56462176E-02 -5.55588266E-03  4.40947061E-17  1.32397372E-01  1.14804023E-01
 -3.41178283E-01 -1.51767373E-01  1.07315739E-01  5.71697748E-03  3.94672565E-03
 -6.33651677E-03  5.71697734E-03  7.28970050E-03 -1.60883626E-03  3.48851715E-01
 -1.51767373E-01 -1.65932420E-01  6.19587713E-02  3.94672565E-03  1.15969130E-03
 -3.65838965E-03 -3.59544060E-02 -1.08325982E-02  1.85831945E-02  1.62153000E-01
  1.61613562E-01  1.07315739E-01  6.19587716E-02 -1.22120953E-01  3.95307841E-02
  2.28231088E-02 -5.55588260E-03 -1.68979368E-02 -7.89830427E-03  6.43640674E-03
 -1.14659486E-01 -6.61986859E-02  1.14804022E-01 -3.41178283E-01  1.51767373E-01
 -1.07315739E-01  5.71697748E-03 -3.94672565E-03  6.33651677E-03  5.71697734E-03
 -7.28970050E-03  1.60883626E-03 -1.91073867E-02  2.16220535E-02 -1.52891006E-02
  3.48851715E-01  1.51767373E-01 -1.65932420E-01  6.19587713E-02 -3.94672565E-03
  1.15969130E-03 -3.65838965E-03  3.59544060E-02 -1.08325982E-02  1.85831945E-02
 -2.16220535E-02  1.39917651E-02 -1.06848902E-02 -1.62153000E-01  1.61613562E-01
 -1.07315739E-01  6.19587716E-02 -1.22120953E-01 -3.95307841E-02  2.28231088E-02
 -5.55588260E-03  1.68979368E-02 -7.89830427E-03  6.43640674E-03  1.52891006E-02
 -1.06848902E-02  6.43640678E-03  1.14659486E-01 -6.61986859E-02  1.14804022E-01
Dipole Moment                              R   N=           3
  3.77475828E-15  9.11881126E-10 -1.86046184E-09
Dipole Derivatives                         R   N=          45
 -8.77897281E-02 -1.72727951E-15  1.26798079E-16 -2.22468964E-15 -8.77897295E-02
  7.83846355E-10  3.31510913E-16  7.70828531E-10 -8.77897245E-02  4.63837663E-02
  1.05884968E-16  6.77782199E-18  1.26465068E-16  4.63837658E-02 -1.52611961E-10
 -2.85300824E-16 -5.30879320E-10 -2.69252362E-02  4.63837673E-02  1.44827639E-15
  1.27765212E-16  2.27173910E-16 -1.87797908E-02 -2.30387972E-02 -5.20425869E-16
 -2.30387969E-02  3.82383201E-02 -2.48890276E-03 -2.82166503E-02  1.99521845E-02
 -2.82166496E-02  3.00928772E-02  1.15193983E-02  1.99521841E-02  1.15193983E-02
  3.82383203E-02 -2.48890276E-03  2.82166503E-02 -1.99521845E-02  2.82166496E-02
  3.00928772E-02  1.15193983E-02 -1.99521841E-02  1.15193983E-02  3.82383203E-02
Polarizability                             R   N=           6
  5.56664711E+00 -1.01703402E-14  5.56664717E+00  7.82541637E-15 -1.86329124E-08
  5.56664724E+00
Polarizability Derivatives                 R   N=          90
  1.57356040E-14 -1.51179958E+00 -2.23939688E-15  1.06900375E+00 -1.93240090E-15
  7.88776433E-16 -1.51179955E+00  1.14849841E-14  1.51179950E+00 -2.42768400E-15
  1.06900374E+00 -2.77973625E-09  1.06900372E+00  4.86676533E-15  1.06900372E+00
  4.07018924E-15 -1.24144747E-08 -2.13800741E+00  2.16336949E-15  3.40180666E-01
  1.70063212E-16  1.98964181E+00 -6.06622809E-16  4.16993964E-16  3.40180667E-01
  5.82761126E-16 -3.40180668E-01 -6.76239470E-16  1.98964181E+00  2.47067461E-09
 -8.12592347E-02 -1.52443072E-15 -8.12592352E-02  1.43061798E-15 -4.90289082E-09
  5.34110655E+00  5.84054085E-16 -1.76245871E+00  1.30683685E-15 -9.83939353E-01
  5.22641523E-16 -8.86956961E-16  1.90005501E-01  1.68514629E-15 -4.89707044E+00
  2.80727405E-16 -1.05515768E+00 -1.75354657E-01 -2.93638997E-01 -4.96106287E-16
 -3.64857331E-01 -2.39947197E-16 -2.12781887E+00 -1.06769971E+00  3.90277015E+00
  1.46703881E+00  1.73667651E-01 -1.03735310E+00 -3.08384405E-02  1.51861589E-01
  4.90806693E-01  1.86455126E+00  1.86272580E+00 -3.08384421E-02 -1.00174394E+00
  8.76773286E-02 -3.47052743E-01 -3.08384431E-02 -3.11443579E-01  1.84274519E+00
  1.06390944E+00 -1.06769971E+00 -3.90277015E+00  1.46703881E+00 -1.73667651E-01
 -1.03735310E+00  3.08384405E-02 -1.51861589E-01  4.90806693E-01 -1.86455126E+00
  1.86272580E+00  3.08384421E-02 -1.00174394E+00  8.76773286E-02 -3.47052743E-01
  3.08384431E-02 -3.11443579E-01 -1.84274519E+00  1.06390944E+00 -1.06769971E+00
HyperPolarizability                        R   N=          10
 -7.27797374E-15  3.78884826E+00  4.39379177E-16 -3.78884823E+00 -2.67912032E+00
 -4.92955883E-15 -2.67912035E+00 -1.22162739E-14  4.02619715E-10  5.35824070E+00
