 Entering Link 1 = D:\G09W\l1.exe PID=     20852.
  
 Copyright (c) 1988,1990,1992,1993,1995,1998,2003,2009,2010,
            Gaussian, Inc.  All Rights Reserved.
  
 This is part of the Gaussian(R) 09 program.  It is based on
 the Gaussian(R) 03 system (copyright 2003, Gaussian, Inc.),
 the Gaussian(R) 98 system (copyright 1998, Gaussian, Inc.),
 the Gaussian(R) 94 system (copyright 1995, Gaussian, Inc.),
 the Gaussian 92(TM) system (copyright 1992, Gaussian, Inc.),
 the Gaussian 90(TM) system (copyright 1990, Gaussian, Inc.),
 the Gaussian 88(TM) system (copyright 1988, Gaussian, Inc.),
 the Gaussian 86(TM) system (copyright 1986, Carnegie Mellon
 University), and the Gaussian 82(TM) system (copyright 1983,
 Carnegie Mellon University). Gaussian is a federally registered
 trademark of Gaussian, Inc.
  
 This software contains proprietary and confidential information,
 including trade secrets, belonging to Gaussian, Inc.
  
 This software is provided under written license and may be
 used, copied, transmitted, or stored only in accord with that
 written license.
  
 The following legend is applicable only to US Government
 contracts under FAR:
  
                    RESTRICTED RIGHTS LEGEND
  
 Use, reproduction and disclosure by the US Government is
 subject to restrictions as set forth in subparagraphs (a)
 and (c) of the Commercial Computer Software - Restricted
 Rights clause in FAR 52.227-19.
  
 Gaussian, Inc.
 340 Quinnipiac St., Bldg. 40, Wallingford CT 06492
  
  
 ---------------------------------------------------------------
 Warning -- This program may not be used in any manner that
 competes with the business of Gaussian, Inc. or will provide
 assistance to any competitor of Gaussian, Inc.  The licensee
 of this program is prohibited from giving any competitor of
 Gaussian, Inc. access to this program.  By using this program,
 the user acknowledges that Gaussian, Inc. is engaged in the
 business of creating and licensing software in the field of
 computational chemistry and represents and warrants to the
 licensee that it is not a competitor of Gaussian, Inc. and that
 it will not use this program in any manner prohibited above.
 ---------------------------------------------------------------
  

 Cite this work as:
 Gaussian 09, Revision B.01,
 M. J. Frisch, G. W. Trucks, H. B. Schlegel, G. E. Scuseria, 
 M. A. Robb, J. R. Cheeseman, G. Scalmani, V. Barone, B. Mennucci, 
 G. A. Petersson, H. Nakatsuji, M. Caricato, X. Li, H. P. Hratchian, 
 A. F. Izmaylov, J. Bloino, G. Zheng, J. L. Sonnenberg, M. Hada, 
 M. Ehara, K. Toyota, R. Fukuda, J. Hasegawa, M. Ishida, T. Nakajima, 
 Y. Honda, O. Kitao, H. Nakai, T. Vreven, J. A. Montgomery, Jr., 
 J. E. Peralta, F. Ogliaro, M. Bearpark, J. J. Heyd, E. Brothers, 
 K. N. Kudin, V. N. Staroverov, T. Keith, R. Kobayashi, J. Normand, 
 K. Raghavachari, A. Rendell, J. C. Burant, S. S. Iyengar, J. Tomasi, 
 M. Cossi, N. Rega, J. M. Millam, M. Klene, J. E. Knox, J. B. Cross, 
 V. Bakken, C. Adamo, J. Jaramillo, R. Gomperts, R. E. Stratmann, 
 O. Yazyev, A. J. Austin, R. Cammi, C. Pomelli, J. W. Ochterski, 
 R. L. Martin, K. Morokuma, V. G. Zakrzewski, G. A. Voth, 
 P. Salvador, J. J. Dannenberg, S. Dapprich, A. D. Daniels, 
 O. Farkas, J. B. Foresman, J. V. Ortiz, J. Cioslowski, 
 and D. J. Fox, Gaussian, Inc., Wallingford CT, 2010.
 
 ******************************************
 Gaussian 09:  IA32W-G09RevB.01 12-Aug-2010
                18-Mar-2020 
 ******************************************
 %chk=CH4.chk
 --------------
 #p Freq NoSymm
 --------------
 1/10=4,30=1,38=1/1,3;
 2/12=2,15=1,17=6,18=5,40=1/2;
 3/11=9,16=1,25=1,30=1,71=2/1,2,3;
 4//1;
 5/5=2,38=5,98=1/2;
 8/6=4,10=90,11=11/1;
 10/13=10,15=4,31=1/2;
 11/6=3,8=1,9=11,15=111,16=1,31=1/1,2,10;
 10/6=1,31=1/2;
 6/7=2,8=2,9=2,10=2,18=1,28=1/1;
 7/8=1,10=1,25=1,30=1/1,2,3,16;
 1/10=4,30=1/3;
 99//99;
 Leave Link    1 at Wed Mar 18 21:50:14 2020, MaxMem=          0 cpu:       0.0
 (Enter D:\G09W\l101.exe)
 ---
 CH4
 ---
 Symbolic Z-matrix:
 Charge =  0 Multiplicity = 1
 C                     0.        0.        0. 
 H                     0.        0.        1.08302 
 H                     0.       -1.02108  -0.36101 
 H                     0.88428   0.51054  -0.36101 
 H                    -0.88428   0.51054  -0.36101 
 
 NAtoms=      5 NQM=      5 NQMF=      0 NMic=      0 NMicF=      0 NTot=      5.
                    Isotopes and Nuclear Properties:
 (Nuclear quadrupole moments (NQMom) in fm**2, nuclear magnetic moments (NMagM)
  in nuclear magnetons)

  Atom         1           2           3           4           5
 IAtWgt=          12           1           1           1           1
 AtmWgt=  12.0000000   1.0078250   1.0078250   1.0078250   1.0078250
 NucSpn=           0           1           1           1           1
 AtZEff=   0.0000000   0.0000000   0.0000000   0.0000000   0.0000000
 NQMom=    0.0000000   0.0000000   0.0000000   0.0000000   0.0000000
 NMagM=    0.0000000   2.7928460   2.7928460   2.7928460   2.7928460
 Leave Link  101 at Wed Mar 18 21:50:14 2020, MaxMem=   33554432 cpu:       0.0
 (Enter D:\G09W\l103.exe)

 GradGradGradGradGradGradGradGradGradGradGradGradGradGradGradGradGradGrad
 Berny optimization.
 Initialization pass.
 Trust Radius=3.00D-01 FncErr=1.00D-07 GrdErr=1.00D-07
 Number of steps in this run=      2 maximum allowed number of steps=      2.
 GradGradGradGradGradGradGradGradGradGradGradGradGradGradGradGradGradGrad

 Leave Link  103 at Wed Mar 18 21:50:14 2020, MaxMem=   33554432 cpu:       0.0
 (Enter D:\G09W\l202.exe)
                          Input orientation:                          
 ---------------------------------------------------------------------
 Center     Atomic      Atomic             Coordinates (Angstroms)
 Number     Number       Type             X           Y           Z
 ---------------------------------------------------------------------
      1          6           0        0.000000    0.000000    0.000000
      2          1           0        0.000000    0.000000    1.083016
      3          1           0        0.000000   -1.021078   -0.361005
      4          1           0        0.884279    0.510539   -0.361005
      5          1           0       -0.884279    0.510539   -0.361005
 ---------------------------------------------------------------------
                    Distance matrix (angstroms):
                    1          2          3          4          5
     1  C    0.000000
     2  H    1.083016   0.000000
     3  H    1.083016   1.768558   0.000000
     4  H    1.083016   1.768558   1.768558   0.000000
     5  H    1.083016   1.768558   1.768558   1.768558   0.000000
 Symmetry turned off by external request.
 Stoichiometry    CH4
 Framework group  TD[O(C),4C3(H)]
 Deg. of freedom     1
 Full point group                 TD      NOp  24
 Rotational constants (GHZ):    160.3220689    160.3220678    160.3220669
 Leave Link  202 at Wed Mar 18 21:50:14 2020, MaxMem=   33554432 cpu:       0.0
 (Enter D:\G09W\l301.exe)
 Standard basis: STO-3G (5D, 7F)
 Ernie: Thresh=  0.10000D-02 Tol=  0.10000D-05 Strict=F.
 Integral buffers will be    262144 words long.
 Raffenetti 1 integral format.
 Two-electron integral symmetry is turned off.
     9 basis functions,    27 primitive gaussians,     9 cartesian basis functions
     5 alpha electrons        5 beta electrons
       nuclear repulsion energy        13.5220252354 Hartrees.
 IExCor=    0 DFT=F Ex=HF Corr=None ExCW=0 ScaHFX=  1.000000
 ScaDFX=  1.000000  1.000000  1.000000  1.000000 ScalE2=  1.000000  1.000000
 IRadAn=      0 IRanWt=     -1 IRanGd=            0 ICorTp=0
 NAtoms=    5 NActive=    5 NUniq=    5 SFac= 1.00D+00 NAtFMM=   50 NAOKFM=F Big=F
 Leave Link  301 at Wed Mar 18 21:50:14 2020, MaxMem=   33554432 cpu:       0.0
 (Enter D:\G09W\l302.exe)
 NPDir=0 NMtPBC=     1 NCelOv=     1 NCel=       1 NClECP=     1 NCelD=      1
         NCelK=      1 NCelE2=     1 NClLst=     1 CellRange=     0.0.
 One-electron integrals computed using PRISM.
 NBasis=     9 RedAO= T  NBF=     9
 NBsUse=     9 1.00D-06 NBFU=     9
 Leave Link  302 at Wed Mar 18 21:50:14 2020, MaxMem=   33554432 cpu:       0.0
 (Enter D:\G09W\l303.exe)
 DipDrv:  MaxL=1.
 Leave Link  303 at Wed Mar 18 21:50:14 2020, MaxMem=   33554432 cpu:       0.0
 (Enter D:\G09W\l401.exe)
 Harris functional with IExCor=  205 diagonalized for initial guess.
 ExpMin= 1.69D-01 ExpMax= 7.16D+01 ExpMxC= 7.16D+01 IAcc=1 IRadAn=         1 AccDes= 0.00D+00
 HarFok:  IExCor=  205 AccDes= 0.00D+00 IRadAn=         1 IDoV= 1
 ScaDFX=  1.000000  1.000000  1.000000  1.000000
 FoFCou: FMM=F IPFlag=           0 FMFlag=      100000 FMFlg1=           0
         NFxFlg=           0 DoJE=T BraDBF=F KetDBF=T FulRan=T
         Omega=  0.000000  0.000000  1.000000  0.000000  0.000000 ICntrl=     500 IOpCl=  0
         NMat0=    1 NMatS0=    1 NMatT0=    0 NMatD0=    1 NMtDS0=    0 NMtDT0=    0
         I1Cent=           4 NGrid=           0.
 Symmetry not used in FoFCou.
 Harris En= -39.8812824477555    
 Leave Link  401 at Wed Mar 18 21:50:14 2020, MaxMem=   33554432 cpu:       0.0
 (Enter D:\G09W\l502.exe)
 Closed shell SCF:
 Requested convergence on RMS density matrix=1.00D-08 within 128 cycles.
 Requested convergence on MAX density matrix=1.00D-06.
 Requested convergence on             energy=1.00D-06.
 No special actions if energy rises.
 Using DIIS extrapolation, IDIIS=  1040.
 Two-electron integral symmetry not used.
 Keep R1 ints in memory in canonical form, NReq=820754.
 IEnd=       19705 IEndB=       19705 NGot=    33554432 MDV=    33550767
 LenX=    33550767 LenY=    33549885
 Symmetry not used in FoFDir.
 MinBra= 0 MaxBra= 1 Meth= 1.
 IRaf=       0 NMat=   1 IRICut=       1 DoRegI=T DoRafI=F ISym2E= 0 JSym2E=0.

 Cycle   1  Pass 1  IDiag  1:
 E= -39.6676806195381    
 DIIS: error= 5.78D-02 at cycle   1 NSaved=   1.
 NSaved= 1 IEnMin= 1 EnMin= -39.6676806195381     IErMin= 1 ErrMin= 5.78D-02
 ErrMax= 5.78D-02 EMaxC= 1.00D-01 BMatC= 5.08D-02 BMatP= 5.08D-02
 IDIUse=3 WtCom= 4.22D-01 WtEn= 5.78D-01
 Coeff-Com:  0.100D+01
 Coeff-En:   0.100D+01
 Coeff:      0.100D+01
 Gap=     1.223 Goal=   None    Shift=    0.000
 GapD=    1.223 DampG=2.000 DampE=0.500 DampFc=1.0000 IDamp=-1.
 RMSDP=3.59D-02 MaxDP=1.24D-01              OVMax= 0.00D+00

 Cycle   2  Pass 1  IDiag  1:
 E= -39.7250941090221     Delta-E=       -0.057413489484 Rises=F Damp=F
 DIIS: error= 1.20D-02 at cycle   2 NSaved=   2.
 NSaved= 2 IEnMin= 2 EnMin= -39.7250941090221     IErMin= 2 ErrMin= 1.20D-02
 ErrMax= 1.20D-02 EMaxC= 1.00D-01 BMatC= 1.70D-03 BMatP= 5.08D-02
 IDIUse=3 WtCom= 8.80D-01 WtEn= 1.20D-01
 Coeff-Com:  0.121D+00 0.879D+00
 Coeff-En:   0.000D+00 0.100D+01
 Coeff:      0.107D+00 0.893D+00
 Gap=     1.238 Goal=   None    Shift=    0.000
 RMSDP=5.71D-03 MaxDP=2.56D-02 DE=-5.74D-02 OVMax= 0.00D+00

 Cycle   3  Pass 1  IDiag  1:
 E= -39.7268549367050     Delta-E=       -0.001760827683 Rises=F Damp=F
 DIIS: error= 6.46D-04 at cycle   3 NSaved=   3.
 NSaved= 3 IEnMin= 3 EnMin= -39.7268549367050     IErMin= 3 ErrMin= 6.46D-04
 ErrMax= 6.46D-04 EMaxC= 1.00D-01 BMatC= 5.68D-06 BMatP= 1.70D-03
 IDIUse=3 WtCom= 9.94D-01 WtEn= 6.46D-03
 Coeff-Com: -0.976D-02-0.943D-02 0.102D+01
 Coeff-En:   0.000D+00 0.000D+00 0.100D+01
 Coeff:     -0.970D-02-0.937D-02 0.102D+01
 Gap=     1.240 Goal=   None    Shift=    0.000
 RMSDP=3.76D-04 MaxDP=1.22D-03 DE=-1.76D-03 OVMax= 0.00D+00

 Cycle   4  Pass 1  IDiag  1:
 E= -39.7268634737748     Delta-E=       -0.000008537070 Rises=F Damp=F
 DIIS: error= 1.54D-04 at cycle   4 NSaved=   4.
 NSaved= 4 IEnMin= 4 EnMin= -39.7268634737748     IErMin= 4 ErrMin= 1.54D-04
 ErrMax= 1.54D-04 EMaxC= 1.00D-01 BMatC= 1.23D-07 BMatP= 5.68D-06
 IDIUse=3 WtCom= 9.98D-01 WtEn= 1.54D-03
 Coeff-Com:  0.266D-02-0.153D-02-0.313D+00 0.131D+01
 Coeff-En:   0.000D+00 0.000D+00 0.000D+00 0.100D+01
 Coeff:      0.266D-02-0.153D-02-0.313D+00 0.131D+01
 Gap=     1.240 Goal=   None    Shift=    0.000
 RMSDP=7.59D-05 MaxDP=5.25D-04 DE=-8.54D-06 OVMax= 0.00D+00

 Cycle   5  Pass 1  IDiag  1:
 E= -39.7268636772609     Delta-E=       -0.000000203486 Rises=F Damp=F
 DIIS: error= 4.56D-07 at cycle   5 NSaved=   5.
 NSaved= 5 IEnMin= 5 EnMin= -39.7268636772609     IErMin= 5 ErrMin= 4.56D-07
 ErrMax= 4.56D-07 EMaxC= 1.00D-01 BMatC= 2.08D-12 BMatP= 1.23D-07
 IDIUse=1 WtCom= 1.00D+00 WtEn= 0.00D+00
 Coeff-Com: -0.306D-05-0.434D-04 0.829D-04 0.188D-02 0.998D+00
 Coeff:     -0.306D-05-0.434D-04 0.829D-04 0.188D-02 0.998D+00
 Gap=     1.240 Goal=   None    Shift=    0.000
 RMSDP=1.83D-07 MaxDP=6.09D-07 DE=-2.03D-07 OVMax= 0.00D+00

 Cycle   6  Pass 1  IDiag  1:
 E= -39.7268636772630     Delta-E=       -0.000000000002 Rises=F Damp=F
 DIIS: error= 8.82D-10 at cycle   6 NSaved=   6.
 NSaved= 6 IEnMin= 6 EnMin= -39.7268636772630     IErMin= 6 ErrMin= 8.82D-10
 ErrMax= 8.82D-10 EMaxC= 1.00D-01 BMatC= 1.07D-17 BMatP= 2.08D-12
 IDIUse=1 WtCom= 1.00D+00 WtEn= 0.00D+00
 Coeff-Com:  0.140D-05 0.199D-04-0.374D-04-0.865D-03-0.454D+00 0.146D+01
 Coeff:      0.140D-05 0.199D-04-0.374D-04-0.865D-03-0.454D+00 0.146D+01
 Gap=     1.240 Goal=   None    Shift=    0.000
 RMSDP=7.78D-10 MaxDP=2.42D-09 DE=-2.03D-12 OVMax= 0.00D+00

 SCF Done:  E(RHF) =  -39.7268636773     A.U. after    6 cycles
             Convg  =    0.7784D-09             -V/T =  2.0066
 KE= 3.946555173177D+01 PE=-1.189568147675D+02 EE= 2.624237412309D+01
 Leave Link  502 at Wed Mar 18 21:50:15 2020, MaxMem=   33554432 cpu:       1.0
 (Enter D:\G09W\l801.exe)
 Range of M.O.s used for correlation:     1     9
 NBasis=     9 NAE=     5 NBE=     5 NFC=     0 NFV=     0
 NROrb=      9 NOA=     5 NOB=     5 NVA=     4 NVB=     4
 Leave Link  801 at Wed Mar 18 21:50:15 2020, MaxMem=   33554432 cpu:       0.0
 (Enter D:\G09W\l1002.exe)
 Minotr:  Closed shell wavefunction.
          Direct CPHF calculation.
          Differentiating once with respect to electric field.
                with respect to dipole field.
          Electric field/nuclear overlap derivatives assumed to be zero.
          Requested convergence is 1.0D-08 RMS, and 1.0D-07 maximum.
          Secondary convergence is 1.0D-12 RMS, and 1.0D-12 maximum.
          NewPWx=F KeepS1=T KeepF1=T KeepIn=T MapXYZ=F SortEE=F KeepMc=T.
          MDV=      33554398 using IRadAn=       2.
          Keep R1 ints in memory in canonical form, NReq=801259.
 Symmetry not used in FoFDir.
 MinBra= 0 MaxBra= 1 Meth= 1.
 IRaf=       0 NMat=   1 IRICut=       1 DoRegI=T DoRafI=F ISym2E= 0 JSym2E=0.
          Solving linear equations simultaneously, MaxMat=       0.
          There are     3 degrees of freedom in the 1st order CPHF.  IDoFFX=0.
      3 vectors produced by pass  0 Test12= 6.67D-16 3.33D-08 XBig12= 8.82D-01 6.33D-01.
 AX will form     3 AO Fock derivatives at one time.
      3 vectors produced by pass  1 Test12= 6.67D-16 3.33D-08 XBig12= 1.53D-04 1.23D-02.
      3 vectors produced by pass  2 Test12= 6.67D-16 3.33D-08 XBig12= 7.57D-08 2.46D-04.
      3 vectors produced by pass  3 Test12= 6.67D-16 3.33D-08 XBig12= 2.30D-10 1.22D-05.
 Inverted reduced A of dimension    12 with in-core refinement.
 End of Minotr Frequency-dependent properties file   721 does not exist.
 End of Minotr Frequency-dependent properties file   722 does not exist.
 Leave Link 1002 at Wed Mar 18 21:50:15 2020, MaxMem=   33554432 cpu:       0.0
 (Enter D:\G09W\l1101.exe)
 Using compressed storage, NAtomX=     5.
 Will process   6 centers per pass.
 Leave Link 1101 at Wed Mar 18 21:50:15 2020, MaxMem=   33554432 cpu:       0.0
 (Enter D:\G09W\l1102.exe)
 Symmetrizing basis deriv contribution to polar:
 IMax=3 JMax=2 DiffMx= 0.00D+00
 Leave Link 1102 at Wed Mar 18 21:50:15 2020, MaxMem=   33554432 cpu:       0.0
 (Enter D:\G09W\l1110.exe)
 Forming Gx(P) for the SCF density, NAtomX=     5.
 Integral derivatives from FoFDir/FoFCou, PRISM(SPDF).
 Do as many integral derivatives as possible in FoFDir.
 G2DrvN: MDV=      33554348.
 G2DrvN: will do     6 centers at a time, making    1 passes doing MaxLOS=1.
 Calling FoFCou, ICntrl=  3107 FMM=F I1Cent=   0 AccDes= 0.00D+00.
 FoFCou: FMM=F IPFlag=           0 FMFlag=      100000 FMFlg1=           0
         NFxFlg=           0 DoJE=F BraDBF=F KetDBF=F FulRan=T
         Omega=  0.000000  0.000000  1.000000  0.000000  0.000000 ICntrl=    3107 IOpCl=  0
         NMat0=    1 NMatS0=    1 NMatT0=    0 NMatD0=    4 NMtDS0=    3 NMtDT0=    0
         I1Cent=           0 NGrid=           0.
 Symmetry not used in FoFCou.
 FoFDir/FoFCou used for L=0 through L=1.
 End of G2Drv Frequency-dependent properties file   721 does not exist.
 End of G2Drv Frequency-dependent properties file   722 does not exist.
 Leave Link 1110 at Wed Mar 18 21:50:15 2020, MaxMem=   33554432 cpu:       0.0
 (Enter D:\G09W\l1002.exe)
 Minotr:  Closed shell wavefunction.
          IDoAtm=11111
          Direct CPHF calculation.
          Differentiating once with respect to electric field.
                with respect to dipole field.
          Differentiating once with respect to nuclear coordinates.
          Requested convergence is 1.0D-08 RMS, and 1.0D-07 maximum.
          Secondary convergence is 1.0D-12 RMS, and 1.0D-12 maximum.
          NewPWx=T KeepS1=F KeepF1=F KeepIn=T MapXYZ=F SortEE=F KeepMc=T.
          MDV=      33554392 using IRadAn=       2.
          Keep R1 ints in memory in canonical form, NReq=801320.
 Symmetry not used in FoFDir.
 MinBra= 0 MaxBra= 1 Meth= 1.
 IRaf=       0 NMat=   1 IRICut=       1 DoRegI=T DoRafI=F ISym2E= 0 JSym2E=0.
          Solving linear equations simultaneously, MaxMat=       0.
          There are    18 degrees of freedom in the 1st order CPHF.  IDoFFX=5.
 Will reuse    3 saved solutions.
     12 vectors produced by pass  0 Test12= 1.11D-16 5.56D-09 XBig12= 5.68D-03 6.19D-02.
 AX will form    12 AO Fock derivatives at one time.
      7 vectors produced by pass  1 Test12= 1.11D-16 5.56D-09 XBig12= 2.61D-05 5.05D-03.
      1 vectors produced by pass  2 Test12= 1.11D-16 5.56D-09 XBig12= 2.18D-08 1.46D-04.
 Inverted reduced A of dimension    20 with in-core refinement.
 FullF1:  Do perturbations    1 to     3.
 Isotropic polarizability for W=    0.000000        5.57 Bohr**3.
 FullF1:  Do perturbations    1 to     6.
 End of Minotr Frequency-dependent properties file   721 does not exist.
 End of Minotr Frequency-dependent properties file   722 does not exist.
 Leave Link 1002 at Wed Mar 18 21:50:15 2020, MaxMem=   33554432 cpu:       0.0
 (Enter D:\G09W\l601.exe)
 Copying SCF densities to generalized density rwf, IOpCl= 0 IROHF=0.

 **********************************************************************

            Population analysis using the SCF density.

 **********************************************************************

 Alpha  occ. eigenvalues --  -11.02969  -0.91209  -0.52049  -0.52049  -0.52049
 Alpha virt. eigenvalues --    0.71922   0.71922   0.71922   0.76105
          Condensed to atoms (all electrons):
              1          2          3          4          5
     1  C    4.719176   0.385863   0.385863   0.385863   0.385863
     2  H    0.385863   0.608266  -0.019929  -0.019929  -0.019929
     3  H    0.385863  -0.019929   0.608266  -0.019929  -0.019929
     4  H    0.385863  -0.019929  -0.019929   0.608266  -0.019929
     5  H    0.385863  -0.019929  -0.019929  -0.019929   0.608266
 Mulliken atomic charges:
              1
     1  C   -0.262628
     2  H    0.065657
     3  H    0.065657
     4  H    0.065657
     5  H    0.065657
 Sum of Mulliken atomic charges =   0.00000
 Mulliken charges with hydrogens summed into heavy atoms:
              1
     1  C    0.000000
 Sum of Mulliken charges with hydrogens summed into heavy atoms =   0.00000
 APT atomic charges:
              1
     1  C   -0.087790
     2  H    0.021947
     3  H    0.021947
     4  H    0.021947
     5  H    0.021947
 Sum of APT charges=   0.00000
 APT Atomic charges with hydrogens summed into heavy atoms:
              1
     1  C    0.000000
     2  H    0.000000
     3  H    0.000000
     4  H    0.000000
     5  H    0.000000
 Sum of APT charges=   0.00000
 Electronic spatial extent (au):  <R**2>=             34.2425
 Charge=              0.0000 electrons
 Dipole moment (field-independent basis, Debye):
    X=              0.0000    Y=              0.0000    Z=              0.0000  Tot=              0.0000
 Quadrupole moment (field-independent basis, Debye-Ang):
   XX=             -7.8407   YY=             -7.8407   ZZ=             -7.8407
   XY=              0.0000   XZ=              0.0000   YZ=              0.0000
 Traceless Quadrupole moment (field-independent basis, Debye-Ang):
   XX=              0.0000   YY=              0.0000   ZZ=              0.0000
   XY=              0.0000   XZ=              0.0000   YZ=              0.0000
 Octapole moment (field-independent basis, Debye-Ang**2):
  XXX=              0.0000  YYY=             -0.4704  ZZZ=              0.6652  XYY=              0.0000
  XXY=              0.4704  XXZ=             -0.3326  XZZ=              0.0000  YZZ=              0.0000
  YYZ=             -0.3326  XYZ=              0.0000
 Hexadecapole moment (field-independent basis, Debye-Ang**3):
 XXXX=            -13.1260 YYYY=            -13.1260 ZZZZ=            -12.9372 XXXY=              0.0000
 XXXZ=              0.0000 YYYX=              0.0000 YYYZ=              0.2669 ZZZX=              0.0000
 ZZZY=              0.0000 XXYY=             -4.3753 XXZZ=             -4.5640 YYZZ=             -4.5640
 XXYZ=             -0.2669 YYXZ=              0.0000 ZZXY=              0.0000
 N-N= 1.352202523539D+01 E-N=-1.189568147583D+02  KE= 3.946555173177D+01
  Exact polarizability:   5.567   0.000   5.567   0.000   0.000   5.567
 Approx polarizability:   4.413   0.000   4.413   0.000   0.000   4.413
 No NMR shielding tensors so no spin-rotation constants.
 Leave Link  601 at Wed Mar 18 21:50:15 2020, MaxMem=   33554432 cpu:       0.0
 (Enter D:\G09W\l701.exe)
 Compute integral second derivatives.
 ... and contract with generalized density number  0.
 Leave Link  701 at Wed Mar 18 21:50:15 2020, MaxMem=   33554432 cpu:       0.0
 (Enter D:\G09W\l702.exe)
 L702 exits ... SP integral derivatives will be done elsewhere.
 Leave Link  702 at Wed Mar 18 21:50:15 2020, MaxMem=   33554432 cpu:       0.0
 (Enter D:\G09W\l703.exe)
 Compute integral second derivatives, UseDBF=F ICtDFT=           0.
 Integral derivatives from FoFDir, PRISM(SPDF).
 Calling FoFJK, ICntrl=    100127 FMM=F ISym2X=0 I1Cent= 0 IOpClX= 0 NMat=1 NMatS=1 NMatT=0.
 FoFCou: FMM=F IPFlag=           0 FMFlag=      100000 FMFlg1=         800
         NFxFlg=           0 DoJE=F BraDBF=F KetDBF=F FulRan=T
         Omega=  0.000000  0.000000  1.000000  0.000000  0.000000 ICntrl=  100127 IOpCl=  0
         NMat0=    1 NMatS0=    1 NMatT0=    0 NMatD0=    1 NMtDS0=    0 NMtDT0=    0
         I1Cent=           0 NGrid=           0.
 Symmetry not used in FoFCou.
 Leave Link  703 at Wed Mar 18 21:50:16 2020, MaxMem=   33554432 cpu:       1.0
 (Enter D:\G09W\l716.exe)
 Dipole        = 3.77475828D-15 9.11881126D-10-1.86046184D-09
 Polarizability= 5.56664711D+00-1.01703402D-14 5.56664717D+00
                 7.82541637D-15-1.86329124D-08 5.56664724D+00
 HyperPolar    =-7.27797374D-15 3.78884826D+00 4.39379177D-16
                -3.78884823D+00-2.67912032D+00-4.92955883D-15
                -2.67912035D+00-1.22162739D-14 4.02619715D-10
                 5.35824070D+00
 Full mass-weighted force constant matrix:
 Low frequencies ---   -0.0010   -0.0005   -0.0005    8.3306    8.3324    8.3329
 Low frequencies --- 1675.7695 1675.7695 1675.7695
 Harmonic frequencies (cm**-1), IR intensities (KM/Mole), Raman scattering
 activities (A**4/AMU), depolarization ratios for plane and unpolarized
 incident light, reduced masses (AMU), force constants (mDyne/A),
 and normal coordinates:
                     1                      2                      3
                     A                      A                      A
 Frequencies --  1675.7695              1675.7695              1675.7695
 Red. masses --     1.1714                 1.1714                 1.1714
 Frc consts  --     1.9382                 1.9382                 1.9382
 IR Inten    --     6.6431                 6.6431                 6.6431
 Raman Activ --     3.8439                 3.8439                 3.8439
 Depolar (P) --     0.7500                 0.7500                 0.7500
 Depolar (U) --     0.8571                 0.8571                 0.8571
  Atom  AN      X      Y      Z        X      Y      Z        X      Y      Z
     1   6     0.12   0.00   0.00     0.00   0.02   0.12     0.00   0.12  -0.02
     2   1    -0.60   0.00   0.00     0.00  -0.08   0.11     0.00  -0.60  -0.01
     3   1    -0.60   0.00   0.00     0.00   0.23  -0.49     0.00   0.01   0.29
     4   1    -0.12   0.28  -0.20    -0.16  -0.17  -0.53     0.30  -0.43  -0.05
     5   1    -0.12  -0.28   0.20     0.16  -0.17  -0.53    -0.30  -0.43  -0.05
                     4                      5                      6
                     A                      A                      A
 Frequencies --  1903.7231              1903.7231              3525.8641
 Red. masses --     1.0078                 1.0078                 1.0078
 Frc consts  --     2.1520                 2.1520                 7.3819
 IR Inten    --     0.0000                 0.0000                 0.0000
 Raman Activ --    21.6715                21.6715                41.7323
 Depolar (P) --     0.7500                 0.7500                 0.0000
 Depolar (U) --     0.8571                 0.8571                 0.0000
  Atom  AN      X      Y      Z        X      Y      Z        X      Y      Z
     1   6     0.00   0.00   0.00     0.00   0.00   0.00     0.00   0.00   0.00
     2   1     0.50   0.00   0.00     0.00   0.50   0.00     0.00   0.00   0.50
     3   1    -0.50   0.00   0.00     0.00   0.17  -0.47     0.00  -0.47  -0.17
     4   1     0.00   0.29   0.41     0.29  -0.33   0.24     0.41   0.24  -0.17
     5   1     0.00  -0.29  -0.41    -0.29  -0.33   0.24    -0.41   0.24  -0.17
                     7                      8                      9
                     A                      A                      A
 Frequencies --  3786.5720              3786.5721              3786.5721
 Red. masses --     1.1083                 1.1083                 1.1083
 Frc consts  --     9.3628                 9.3628                 9.3628
 IR Inten    --     0.4677                 0.4677                 0.4677
 Raman Activ --    21.2836                21.2836                21.2836
 Depolar (P) --     0.7500                 0.7500                 0.7500
 Depolar (U) --     0.8571                 0.8571                 0.8571
  Atom  AN      X      Y      Z        X      Y      Z        X      Y      Z
     1   6     0.00   0.00  -0.10     0.10   0.00   0.00     0.00   0.10   0.00
     2   1     0.00   0.00   0.86     0.00   0.00   0.00     0.00   0.00  -0.02
     3   1     0.00   0.25   0.09     0.00   0.00   0.00     0.00  -0.77  -0.27
     4   1    -0.24  -0.14   0.10    -0.57  -0.33   0.24    -0.33  -0.19   0.13
     5   1     0.24  -0.14   0.10    -0.57   0.33  -0.24     0.33  -0.19   0.13

 -------------------
 - Thermochemistry -
 -------------------
 Temperature   298.150 Kelvin.  Pressure   1.00000 Atm.
 Atom     1 has atomic number  6 and mass  12.00000
 Atom     2 has atomic number  1 and mass   1.00783
 Atom     3 has atomic number  1 and mass   1.00783
 Atom     4 has atomic number  1 and mass   1.00783
 Atom     5 has atomic number  1 and mass   1.00783
 Molecular mass:    16.03130 amu.
 Principal axes and moments of inertia in atomic units:
                           1         2         3
     Eigenvalues --    11.25697  11.25697  11.25697
           X            0.00000   0.00000   1.00000
           Y           -0.17169   0.98515   0.00000
           Z            0.98515   0.17169   0.00000
 This molecule is a spherical top.
 Rotational symmetry number 12.
 Rotational temperatures (Kelvin)      7.69424     7.69424     7.69424
 Rotational constants (GHZ):         160.32207   160.32207   160.32207
 Zero-point vibrational energy     141879.1 (Joules/Mol)
                                   33.90992 (Kcal/Mol)
 Vibrational temperatures:   2411.06  2411.06  2411.06  2739.03  2739.03
          (Kelvin)           5072.93  5448.03  5448.03  5448.03
 
 Zero-point correction=                           0.054039 (Hartree/Particle)
 Thermal correction to Energy=                    0.056880
 Thermal correction to Enthalpy=                  0.057824
 Thermal correction to Gibbs Free Energy=         0.036746
 Sum of electronic and zero-point Energies=            -39.672825
 Sum of electronic and thermal Energies=               -39.669983
 Sum of electronic and thermal Enthalpies=             -39.669039
 Sum of electronic and thermal Free Energies=          -39.690118
 
                     E (Thermal)             CV                S
                      KCal/Mol        Cal/Mol-Kelvin    Cal/Mol-Kelvin
 Total                   35.693              6.116             44.364
 Electronic               0.000              0.000              0.000
 Translational            0.889              2.981             34.261
 Rotational               0.889              2.981             10.081
 Vibrational             33.915              0.154              0.021
                       Q            Log10(Q)             Ln(Q)
 Total Bot       0.125337D-16        -16.901919        -38.918107
 Total V=0       0.899903D+08          7.954196         18.315213
 Vib (Bot)       0.139436D-24        -24.855625        -57.232192
 Vib (V=0)       0.100113D+01          0.000490          0.001128
 Electronic      0.100000D+01          0.000000          0.000000
 Translational   0.252295D+07          6.401908         14.740939
 Rotational      0.356285D+02          1.551798          3.573146
 
                                                                 CH4
                                                             IR Spectrum
 
      3       3                                                      1      1                                                        
      7       5                                                      9      6                                                        
      8       2                                                      0      7                                                        
      7       6                                                      4      6                                                        
 
      X                                                                     X                                                        
                                                                            X                                                        
                                                                            X                                                        
                                                                            X                                                        
                                                                            X                                                        
                                                                            X                                                        
                                                                            X                                                        
                                                                            X                                                        
                                                                            X                                                        
                                                                            X                                                        
                                                                            X                                                        
                                                                            X                                                        
                                                                            X                                                        
                                                                            X                                                        
                                                                            X                                                        
                                                                            X                                                        
                                                                            X                                                        
                                                                            X                                                        
                                                                            X                                                        
                                                                            X                                                        
 
 
                                                                 CH4
                                                            Raman Spectrum
 
      3       3                                                      1      1                                                        
      7       5                                                      9      6                                                        
      8       2                                                      0      7                                                        
      7       6                                                      4      6                                                        
 
      X       X                                                      X      X                                                        
      X       X                                                      X      X                                                        
      X       X                                                      X      X                                                        
      X       X                                                      X      X                                                        
      X       X                                                      X                                                               
      X       X                                                      X                                                               
      X       X                                                      X                                                               
      X       X                                                      X                                                               
      X       X                                                      X                                                               
      X       X                                                      X                                                               
      X       X                                                      X                                                               
      X       X                                                      X                                                               
      X       X                                                      X                                                               
      X                                                              X                                                               
      X                                                                                                                              
      X                                                                                                                              
      X                                                                                                                              
      X                                                                                                                              
      X                                                                                                                              
      X                                                                                                                              
 
 -------------------------------------------------------------------
 Center     Atomic                   Forces (Hartrees/Bohr)
 Number     Number              X              Y              Z
 -------------------------------------------------------------------
      1        6           0.000000000    0.000000002    0.000000003
      2        1           0.000000000    0.000000000   -0.000005425
      3        1           0.000000000    0.000005109    0.000001807
      4        1          -0.000004424   -0.000002556    0.000001808
      5        1           0.000004424   -0.000002556    0.000001808
 -------------------------------------------------------------------
 Cartesian Forces:  Max     0.000005425 RMS     0.000002799
 Z-matrix is all fixed cartesians, so copy forces.
 Force constants in Cartesian coordinates: 
                1             2             3             4             5 
      1  0.838976D+00
      2  0.000000D+00  0.838976D+00
      3  0.000000D+00  0.000000D+00  0.838976D+00
      4 -0.783095D-01  0.000000D+00  0.000000D+00  0.679945D-01
      5  0.000000D+00 -0.783095D-01  0.000000D+00  0.000000D+00  0.679945D-01
      6  0.000000D+00  0.000000D+00 -0.472613D+00  0.000000D+00  0.000000D+00
      7 -0.783095D-01  0.000000D+00  0.000000D+00 -0.111895D-02  0.000000D+00
      8  0.000000D+00 -0.428801D+00 -0.123918D+00  0.000000D+00  0.799562D-02
      9  0.000000D+00 -0.123918D+00 -0.122121D+00  0.000000D+00 -0.456462D-01
     10 -0.341178D+00 -0.151767D+00  0.107316D+00  0.571698D-02  0.394673D-02
     11 -0.151767D+00 -0.165932D+00  0.619588D-01  0.394673D-02  0.115969D-02
     12  0.107316D+00  0.619588D-01 -0.122121D+00  0.395308D-01  0.228231D-01
     13 -0.341178D+00  0.151767D+00 -0.107316D+00  0.571698D-02 -0.394673D-02
     14  0.151767D+00 -0.165932D+00  0.619588D-01 -0.394673D-02  0.115969D-02
     15 -0.107316D+00  0.619588D-01 -0.122121D+00 -0.395308D-01  0.228231D-01
                6             7             8             9            10 
      6  0.489280D+00
      7  0.000000D+00  0.679945D-01
      8  0.731678D-02  0.000000D+00  0.442471D+00
      9 -0.555588D-02  0.000000D+00  0.132397D+00  0.114804D+00
     10 -0.633652D-02  0.571698D-02  0.728970D-02 -0.160884D-02  0.348852D+00
     11 -0.365839D-02 -0.359544D-01 -0.108326D-01  0.185832D-01  0.162153D+00
     12 -0.555588D-02 -0.168979D-01 -0.789830D-02  0.643641D-02 -0.114659D+00
     13  0.633652D-02  0.571698D-02 -0.728970D-02  0.160884D-02 -0.191074D-01
     14 -0.365839D-02  0.359544D-01 -0.108326D-01  0.185832D-01 -0.216221D-01
     15 -0.555588D-02  0.168979D-01 -0.789830D-02  0.643641D-02  0.152891D-01
               11            12            13            14            15 
     11  0.161614D+00
     12 -0.661987D-01  0.114804D+00
     13  0.216221D-01 -0.152891D-01  0.348852D+00
     14  0.139918D-01 -0.106849D-01 -0.162153D+00  0.161614D+00
     15 -0.106849D-01  0.643641D-02  0.114659D+00 -0.661987D-01  0.114804D+00
 Leave Link  716 at Wed Mar 18 21:50:16 2020, MaxMem=   33554432 cpu:       0.0
 (Enter D:\G09W\l103.exe)

 GradGradGradGradGradGradGradGradGradGradGradGradGradGradGradGradGradGrad
 Berny optimization.
 Search for a local minimum.
 Step number   1 out of a maximum of    2
 All quantities printed in internal units (Hartrees-Bohrs-Radians)
 Second derivative matrix not updated -- analytic derivatives used.
 The second derivative matrix:
                          X1        Y1        Z1        X2        Y2
           X1           0.83898
           Y1           0.00000   0.83898
           Z1           0.00000   0.00000   0.83898
           X2          -0.07831   0.00000   0.00000   0.06799
           Y2           0.00000  -0.07831   0.00000   0.00000   0.06799
           Z2           0.00000   0.00000  -0.47261   0.00000   0.00000
           X3          -0.07831   0.00000   0.00000  -0.00112   0.00000
           Y3           0.00000  -0.42880  -0.12392   0.00000   0.00800
           Z3           0.00000  -0.12392  -0.12212   0.00000  -0.04565
           X4          -0.34118  -0.15177   0.10732   0.00572   0.00395
           Y4          -0.15177  -0.16593   0.06196   0.00395   0.00116
           Z4           0.10732   0.06196  -0.12212   0.03953   0.02282
           X5          -0.34118   0.15177  -0.10732   0.00572  -0.00395
           Y5           0.15177  -0.16593   0.06196  -0.00395   0.00116
           Z5          -0.10732   0.06196  -0.12212  -0.03953   0.02282
                          Z2        X3        Y3        Z3        X4
           Z2           0.48928
           X3           0.00000   0.06799
           Y3           0.00732   0.00000   0.44247
           Z3          -0.00556   0.00000   0.13240   0.11480
           X4          -0.00634   0.00572   0.00729  -0.00161   0.34885
           Y4          -0.00366  -0.03595  -0.01083   0.01858   0.16215
           Z4          -0.00556  -0.01690  -0.00790   0.00644  -0.11466
           X5           0.00634   0.00572  -0.00729   0.00161  -0.01911
           Y5          -0.00366   0.03595  -0.01083   0.01858  -0.02162
           Z5          -0.00556   0.01690  -0.00790   0.00644   0.01529
                          Y4        Z4        X5        Y5        Z5
           Y4           0.16161
           Z4          -0.06620   0.11480
           X5           0.02162  -0.01529   0.34885
           Y5           0.01399  -0.01068  -0.16215   0.16161
           Z5          -0.01068   0.00644   0.11466  -0.06620   0.11480
 ITU=  0
     Eigenvalues ---    0.13822   0.13822   0.16935   0.16935   0.16935
     Eigenvalues ---    0.47414   1.07685   1.07685   1.07685
 Angle between quadratic step and forces=   0.04 degrees.
 Linear search not attempted -- first point.
 TrRot=  0.000000  0.000000  0.000000  0.000000  0.000000  0.000000
 Variable       Old X    -DE/DX   Delta X   Delta X   Delta X     New X
                                 (Linear)    (Quad)   (Total)
    X1        0.00000   0.00000   0.00000   0.00000   0.00000   0.00000
    Y1        0.00000   0.00000   0.00000   0.00000   0.00000   0.00000
    Z1        0.00000   0.00000   0.00000   0.00000   0.00000   0.00000
    X2        0.00000   0.00000   0.00000   0.00000   0.00000   0.00000
    Y2        0.00000   0.00000   0.00000   0.00000   0.00000   0.00000
    Z2        2.04660  -0.00001   0.00000  -0.00001  -0.00001   2.04659
    X3        0.00000   0.00000   0.00000   0.00000   0.00000   0.00000
    Y3       -1.92956   0.00001   0.00000   0.00001   0.00001  -1.92955
    Z3       -0.68220   0.00000   0.00000   0.00000   0.00000  -0.68220
    X4        1.67105   0.00000   0.00000  -0.00001  -0.00001   1.67104
    Y4        0.96478   0.00000   0.00000  -0.00001  -0.00001   0.96477
    Z4       -0.68220   0.00000   0.00000   0.00000   0.00000  -0.68220
    X5       -1.67105   0.00000   0.00000   0.00001   0.00001  -1.67104
    Y5        0.96478   0.00000   0.00000  -0.00001  -0.00001   0.96477
    Z5       -0.68220   0.00000   0.00000   0.00000   0.00000  -0.68220
         Item               Value     Threshold  Converged?
 Maximum Force            0.000005     0.000450     YES
 RMS     Force            0.000003     0.000300     YES
 Maximum Displacement     0.000011     0.001800     YES
 RMS     Displacement     0.000006     0.001200     YES
 Predicted change in Energy=-1.239596D-10
 Optimization completed.
    -- Stationary point found.
 GradGradGradGradGradGradGradGradGradGradGradGradGradGradGradGradGradGrad

 Leave Link  103 at Wed Mar 18 21:50:16 2020, MaxMem=   33554432 cpu:       0.0
 (Enter D:\G09W\l9999.exe)
 1|1|UNPC-DESKTOP-8BRL880|Freq|RHF|STO-3G|C1H4|AJZ34|18-Mar-2020|0||#p 
 Freq NoSymm||CH4||0,1|C,0.,0.,0.|H,0.,0.,1.08301634|H,0.,-1.02107759,-
 0.36100545|H,0.88427913,0.5105388,-0.36100545|H,-0.88427913,0.5105388,
 -0.36100545||Version=IA32W-G09RevB.01|HF=-39.7268637|RMSD=7.784e-010|R
 MSF=2.799e-006|ZeroPoint=0.0540389|Thermal=0.0568803|Dipole=0.,0.,0.|D
 ipoleDeriv=-0.0877897,0.,0.,0.,-0.0877897,0.,0.,0.,-0.0877897,0.046383
 8,0.,0.,0.,0.0463838,0.,0.,0.,-0.0269252,0.0463838,0.,0.,0.,-0.0187798
 ,-0.0230388,0.,-0.0230388,0.0382383,-0.0024889,-0.0282167,0.0199522,-0
 .0282166,0.0300929,0.0115194,0.0199522,0.0115194,0.0382383,-0.0024889,
 0.0282167,-0.0199522,0.0282166,0.0300929,0.0115194,-0.0199522,0.011519
 4,0.0382383|Polar=5.5666471,0.,5.5666472,0.,0.,5.5666472|PolarDeriv=0.
 ,-1.5117996,0.,1.0690037,0.,0.,-1.5117996,0.,1.5117995,0.,1.0690037,0.
 ,1.0690037,0.,1.0690037,0.,0.,-2.1380074,0.,0.3401807,0.,1.9896418,0.,
 0.,0.3401807,0.,-0.3401807,0.,1.9896418,0.,-0.0812592,0.,-0.0812592,0.
 ,0.,5.3411065,0.,-1.7624587,0.,-0.9839394,0.,0.,0.1900055,0.,-4.897070
 4,0.,-1.0551577,-0.1753547,-0.293639,0.,-0.3648573,0.,-2.1278189,-1.06
 76997,3.9027702,1.4670388,0.1736677,-1.0373531,-0.0308384,0.1518616,0.
 4908067,1.8645513,1.8627258,-0.0308384,-1.0017439,0.0876773,-0.3470527
 ,-0.0308384,-0.3114436,1.8427452,1.0639094,-1.0676997,-3.9027702,1.467
 0388,-0.1736677,-1.0373531,0.0308384,-0.1518616,0.4908067,-1.8645513,1
 .8627258,0.0308384,-1.0017439,0.0876773,-0.3470527,0.0308384,-0.311443
 6,-1.8427452,1.0639094,-1.0676997|HyperPolar=0.,3.7888483,0.,-3.788848
 2,-2.6791203,0.,-2.6791203,0.,0.,5.3582407|PG=TD [O(C1),4C3(H1)]|NImag
 =0||0.83897554,0.,0.83897555,0.,0.,0.83897553,-0.07830949,0.,0.,0.0679
 9448,0.,-0.07830949,0.,0.,0.06799448,0.,0.,-0.47261267,0.,0.,0.4892803
 2,-0.07830948,0.,0.,-0.00111895,0.,0.,0.06799448,0.,-0.42880122,-0.123
 91754,0.,0.00799562,0.00731678,0.,0.44247079,0.,-0.12391754,-0.1221209
 5,0.,-0.04564622,-0.00555588,0.,0.13239737,0.11480402,-0.34117828,-0.1
 5176737,0.10731574,0.00571698,0.00394673,-0.00633652,0.00571698,0.0072
 8970,-0.00160884,0.34885171,-0.15176737,-0.16593242,0.06195877,0.00394
 673,0.00115969,-0.00365839,-0.03595441,-0.01083260,0.01858319,0.162153
 00,0.16161356,0.10731574,0.06195877,-0.12212095,0.03953078,0.02282311,
 -0.00555588,-0.01689794,-0.00789830,0.00643641,-0.11465949,-0.06619869
 ,0.11480402,-0.34117828,0.15176737,-0.10731574,0.00571698,-0.00394673,
 0.00633652,0.00571698,-0.00728970,0.00160884,-0.01910739,0.02162205,-0
 .01528910,0.34885171,0.15176737,-0.16593242,0.06195877,-0.00394673,0.0
 0115969,-0.00365839,0.03595441,-0.01083260,0.01858319,-0.02162205,0.01
 399177,-0.01068489,-0.16215300,0.16161356,-0.10731574,0.06195877,-0.12
 212095,-0.03953078,0.02282311,-0.00555588,0.01689794,-0.00789830,0.006
 43641,0.01528910,-0.01068489,0.00643641,0.11465949,-0.06619869,0.11480
 402||0.,0.,0.,0.,0.,0.00000543,0.,-0.00000511,-0.00000181,0.00000442,0
 .00000256,-0.00000181,-0.00000442,0.00000256,-0.00000181|||@


 ALL PAPERS THAT YOU SAVE WILL NEVER BE NEEDED UNTIL
 SUCH TIME AS THEY ARE DISPOSED OF, WHEN THEY BECOME
 ESSENTIAL.

           -- JOHN CORCORAN IN
              PAUL DICKSON'S "THE OFFICIAL RULES"
 Job cpu time:  0 days  0 hours  0 minutes  2.0 seconds.
 File lengths (MBytes):  RWF=      5 Int=      0 D2E=      0 Chk=      1 Scr=      1
 Normal termination of Gaussian 09 at Wed Mar 18 21:50:16 2020.
