H2O2 Frequency-Dependent Polarizability (Raman)                         
Freq      RHF                                                         6-31G               
Number of atoms                            I                4
Info1-9                                    I   N=           9
         112         111           0           0           0         100
           6           1           2
Charge                                     I                0
Multiplicity                               I                1
Number of electrons                        I               18
Number of alpha electrons                  I                9
Number of beta electrons                   I                9
Number of basis functions                  I               22
Number of independent functions            I               22
Number of point charges in /Mol/           I                0
Number of translation vectors              I                0
Atomic numbers                             I   N=           4
           8           8           1           1
Nuclear charges                            R   N=           4
  8.00000000E+00  8.00000000E+00  1.00000000E+00  1.00000000E+00
Current cartesian coordinates              R   N=          12
  0.00000000E+00  0.00000000E+00  0.00000000E+00  0.00000000E+00  0.00000000E+00
  2.83458920E+00  1.88972613E+00  0.00000000E+00  0.00000000E+00  0.00000000E+00
  1.32280829E+00  1.88972613E+00
Force Field                                I                0
Int Atom Types                             I   N=           4
           0           0           0           0
MM charges                                 R   N=           4
  0.00000000E+00  0.00000000E+00  0.00000000E+00  0.00000000E+00
Integer atomic weights                     I   N=           4
          16          16           1           1
Real atomic weights                        R   N=           4
  1.59949146E+01  1.59949146E+01  1.00782504E+00  1.00782504E+00
Atom fragment info                         I   N=           4
           0           0           0           0
Atom residue num                           I   N=           4
           0           0           0           0
Nuclear spins                              I   N=           4
           0           0           1           1
Nuclear ZEff                               R   N=           4
 -5.60000000E+00 -5.60000000E+00 -1.00000000E+00 -1.00000000E+00
Nuclear QMom                               R   N=           4
  0.00000000E+00  0.00000000E+00  0.00000000E+00  0.00000000E+00
Nuclear GFac                               R   N=           4
  0.00000000E+00  0.00000000E+00  2.79284600E+00  2.79284600E+00
MicOpt                                     I   N=           4
          -1          -1          -1          -1
Number of contracted shells                I               10
Number of primitive shells                 I               28
Pure/Cartesian d shells                    I                1
Pure/Cartesian f shells                    I                0
Highest angular momentum                   I                1
Largest degree of contraction              I                6
Shell types                                I   N=          10
           0          -1          -1           0          -1          -1
           0           0           0           0
Number of primitives per shell             I   N=          10
           6           3           1           6           3           1
           3           1           3           1
Shell to atom map                          I   N=          10
           1           1           1           2           2           2
           3           3           4           4
Primitive exponents                        R   N=          28
  5.48467166E+03  8.25234946E+02  1.88046958E+02  5.29645000E+01  1.68975704E+01
  5.79963534E+00  1.55396162E+01  3.59993359E+00  1.01376175E+00  2.70005823E-01
  5.48467166E+03  8.25234946E+02  1.88046958E+02  5.29645000E+01  1.68975704E+01
  5.79963534E+00  1.55396162E+01  3.59993359E+00  1.01376175E+00  2.70005823E-01
  1.87311370E+01  2.82539436E+00  6.40121692E-01  1.61277759E-01  1.87311370E+01
  2.82539436E+00  6.40121692E-01  1.61277759E-01
Contraction coefficients                   R   N=          28
  1.83107443E-03  1.39501722E-02  6.84450781E-02  2.32714336E-01  4.70192898E-01
  3.58520853E-01 -1.10777550E-01 -1.48026263E-01  1.13076702E+00  1.00000000E+00
  1.83107443E-03  1.39501722E-02  6.84450781E-02  2.32714336E-01  4.70192898E-01
  3.58520853E-01 -1.10777550E-01 -1.48026263E-01  1.13076702E+00  1.00000000E+00
  3.34946043E-02  2.34726953E-01  8.13757326E-01  1.00000000E+00  3.34946043E-02
  2.34726953E-01  8.13757326E-01  1.00000000E+00
P(S=P) Contraction coefficients            R   N=          28
  0.00000000E+00  0.00000000E+00  0.00000000E+00  0.00000000E+00  0.00000000E+00
  0.00000000E+00  7.08742682E-02  3.39752839E-01  7.27158577E-01  1.00000000E+00
  0.00000000E+00  0.00000000E+00  0.00000000E+00  0.00000000E+00  0.00000000E+00
  0.00000000E+00  7.08742682E-02  3.39752839E-01  7.27158577E-01  1.00000000E+00
  0.00000000E+00  0.00000000E+00  0.00000000E+00  0.00000000E+00  0.00000000E+00
  0.00000000E+00  0.00000000E+00  0.00000000E+00
Coordinates of each shell                  R   N=          30
  0.00000000E+00  0.00000000E+00  0.00000000E+00  0.00000000E+00  0.00000000E+00
  0.00000000E+00  0.00000000E+00  0.00000000E+00  0.00000000E+00  0.00000000E+00
  0.00000000E+00  2.83458920E+00  0.00000000E+00  0.00000000E+00  2.83458920E+00
  0.00000000E+00  0.00000000E+00  2.83458920E+00  1.88972613E+00  0.00000000E+00
  0.00000000E+00  1.88972613E+00  0.00000000E+00  0.00000000E+00  0.00000000E+00
  1.32280829E+00  1.88972613E+00  0.00000000E+00  1.32280829E+00  1.88972613E+00
Constraint Structure                       R   N=          12
  0.00000000E+00  0.00000000E+00  0.00000000E+00  0.00000000E+00  0.00000000E+00
  2.83458920E+00  1.88972613E+00  0.00000000E+00  0.00000000E+00  0.00000000E+00
  1.32280829E+00  1.88972613E+00
Num ILSW                                   I              100
ILSW                                       I   N=         100
           0           1           0           0           2           0
           0           0           0           0           0          -1
           0           0           0           0           0           0
           0           0           0           0           1           0
           1           1           0           0           0           0
           0           0      100000           0          -1           0
           0           0           0           0           0           0
           0           0           0           1           0           0
           0           0           1           0           0           0
           0           0           4          40           0           0
           0           0           0           0           0           0
           0           0           0           0           0           0
           0           0           0           0           0           0
           0           0           0           0           0           0
           0           0           0           0           0           0
           0           0           0           0           0           0
           0           0           0           0
Num RLSW                                   I               40
RLSW                                       R   N=          40
  1.00000000E+00  1.00000000E+00  1.00000000E+00  1.00000000E+00  1.00000000E+00
  0.00000000E+00  0.00000000E+00  1.00000000E+00  0.00000000E+00  0.00000000E+00
  0.00000000E+00  0.00000000E+00  1.00000000E+00  0.00000000E+00  0.00000000E+00
  0.00000000E+00  0.00000000E+00  1.00000000E+00  0.00000000E+00  0.00000000E+00
  0.00000000E+00  0.00000000E+00  1.00000000E+00  0.00000000E+00  0.00000000E+00
  0.00000000E+00  0.00000000E+00  1.00000000E+00  0.00000000E+00  0.00000000E+00
  0.00000000E+00  0.00000000E+00  1.00000000E+00  0.00000000E+00  0.00000000E+00
  0.00000000E+00  0.00000000E+00  0.00000000E+00  1.00000000E+00  1.00000000E+00
MxBond                                     I                2
NBond                                      I   N=           4
           2           2           1           1
IBond                                      I   N=           8
           2           3           1           4           1           0
           2           0
RBond                                      R   N=           8
  1.00000000E+00  1.00000000E+00  1.00000000E+00  1.00000000E+00  1.00000000E+00
  0.00000000E+00  1.00000000E+00  0.00000000E+00
Virial Ratio                               R      1.996594338451716E+00
SCF Energy                                 R     -1.505850337850876E+02
Total Energy                               R     -1.505850337850876E+02
RMS Force                                  R      9.454413483238912E-02
RMS Density                                R      5.654958393164900E-09
External E-field                           R   N=          35
  0.00000000E+00  0.00000000E+00  0.00000000E+00  0.00000000E+00  0.00000000E+00
  0.00000000E+00  0.00000000E+00  0.00000000E+00  0.00000000E+00  0.00000000E+00
  0.00000000E+00  0.00000000E+00  0.00000000E+00  0.00000000E+00  0.00000000E+00
  0.00000000E+00  0.00000000E+00  0.00000000E+00  0.00000000E+00  0.00000000E+00
  0.00000000E+00  0.00000000E+00  0.00000000E+00  0.00000000E+00  0.00000000E+00
  0.00000000E+00  0.00000000E+00  0.00000000E+00  0.00000000E+00  0.00000000E+00
  0.00000000E+00  0.00000000E+00  0.00000000E+00  0.00000000E+00  0.00000000E+00
IOpCl                                      I                0
IROHF                                      I                0
Alpha Orbital Energies                     R   N=          22
 -2.06710275E+01 -2.06357144E+01 -1.58082983E+00 -1.23932582E+00 -7.68824942E-01
 -7.25511245E-01 -5.89611698E-01 -5.29433896E-01 -5.19198421E-01  1.55664359E-01
  1.90455414E-01  3.09896988E-01  1.01629042E+00  1.08030214E+00  1.11567392E+00
  1.12472147E+00  1.21425268E+00  1.25020319E+00  1.30672735E+00  1.34263848E+00
  1.70655432E+00  1.87645269E+00
Alpha MO coefficients                      R   N=         484
  9.95854914E-01  2.20894546E-02  1.58146987E-03  3.13424521E-04  1.58465607E-03
 -8.69982897E-03 -1.76660250E-03 -4.81377813E-04 -2.13322225E-03  3.14651942E-03
  3.15715209E-04  3.00651233E-05  4.31522105E-05 -2.55037693E-04  3.30637388E-04
  1.61967191E-05 -7.61260713E-04 -9.10843505E-04  5.76935089E-04  1.85387436E-03
  4.85587304E-04  1.67588251E-03 -3.17520416E-03  1.82462789E-04  3.56677680E-06
  1.09574477E-04  2.66845048E-04  5.17212742E-04 -6.15190033E-05 -5.79237792E-04
  8.88517172E-04  9.95818848E-01  2.20324245E-02  1.10813408E-04  1.30756063E-03
 -1.99280072E-03 -8.63555204E-03 -4.76809452E-05 -1.50801411E-03  2.35603852E-03
  3.67822032E-08  1.23419221E-04 -2.65060937E-05  3.42428745E-03 -1.41864894E-01
  3.07429435E-01  4.59214364E-02  2.70752185E-02  9.79191285E-02  3.12423342E-01
  3.35668137E-02  2.25965832E-02  5.13882170E-02 -1.46141636E-01  3.20567075E-01
  8.45014154E-03  7.34559697E-02 -1.14108173E-01  2.83150697E-01  8.66774190E-03
  2.93414623E-02 -3.63159629E-02  7.17399353E-02 -1.55083593E-02  1.69788048E-01
 -5.34350428E-02 -1.66671417E-01  3.72339908E-01  9.52570172E-02  2.30874855E-03
 -5.82158130E-02  4.58536763E-01  5.71893647E-02  1.19933635E-02  1.70962379E-02
  1.53592984E-01 -3.51034514E-01  2.26221712E-03 -9.70057240E-02 -2.74883630E-03
 -3.97498120E-01 -2.95826804E-03 -3.89070858E-02  2.75583428E-02  1.28557305E-01
 -5.06851662E-03 -1.23498244E-01  6.92740140E-03 -3.10429200E-03  6.57485371E-03
 -1.67087494E-01  2.96393323E-01  7.11159623E-02  2.69499633E-02 -8.93534279E-02
  1.88477728E-01  4.02858503E-02  8.08815419E-02 -1.82459802E-01 -7.95351247E-02
  3.63102545E-01 -1.70794475E-01 -3.31498993E-01 -5.26786166E-02  1.78219072E-01
 -6.69298716E-02 -1.07561884E-01 -5.69337465E-02  2.60887059E-01  7.86327964E-02
  6.25737297E-02 -1.50653119E-01  4.45338276E-01  1.19136400E-01  1.40419379E-02
 -2.28039449E-01  2.73768393E-01  7.56343067E-02  1.53038587E-02  1.34620700E-02
 -2.72830447E-02  2.39346721E-01  1.71154911E-01 -7.58295917E-04 -7.04488497E-02
  1.61786155E-01  9.66195498E-02  1.24894728E-02  2.23982007E-01  1.02176685E-01
  8.62499005E-02  3.59062422E-02  2.38089756E-02 -8.12877612E-02 -2.31372622E-03
 -2.16200486E-01  4.02634828E-01 -3.12354246E-02  1.65154578E-02 -1.35702490E-01
  3.08517819E-01  4.48931311E-02 -1.26581504E-01  1.45623750E-01 -1.12028859E-01
 -3.59851771E-01 -1.26580290E-01  1.12085183E-01 -5.62605889E-02 -2.42976949E-01
 -5.26171458E-02 -4.29528886E-02  1.11534914E-02 -1.24826603E-01 -2.39075335E-02
  5.01456823E-02 -2.25903039E-01  3.06115687E-01 -1.87132358E-02  1.22224904E-01
 -1.43314671E-01  2.30422223E-01  1.73983358E-04 -9.82945332E-03  1.93456597E-02
  5.25129785E-01 -1.99946952E-01  5.75438466E-02  3.89906927E-02  3.87651441E-01
 -1.39684416E-01  3.44778667E-02 -1.31315672E-01 -5.84786093E-02 -6.88415085E-02
  7.67857236E-03  1.93812531E-02 -7.10215447E-02  1.41846090E-01  4.45633885E-01
  2.01266723E-01 -1.60954580E-03  1.02008051E-01  3.47021070E-01  1.94746050E-01
 -8.49906322E-03  2.05573700E-02 -3.00515670E-01 -3.53654767E-01 -7.11928168E-03
  6.89410632E-03 -2.19638600E-01 -2.37120927E-01  1.26820346E-02  5.22735026E-02
  1.93061979E-02 -9.88751937E-02 -5.89932862E-02  7.67572309E-02 -1.62254104E-01
 -1.12368888E-01  3.07208957E-02 -3.82545531E-01 -7.29391301E-01 -2.54702904E-01
  5.80855637E-02 -5.14281000E-01 -3.30572826E-02  8.78784034E-02 -2.42487638E-02
 -1.08587402E-01 -4.20616026E-01  2.53798803E-01 -4.91629257E-02 -1.31894574E-01
 -5.44659978E-01  3.32962197E-02  7.83317982E-01  8.43705823E-02 -7.15540168E-02
  3.13738908E-02 -1.45619726E-02 -2.51071972E-01 -5.49658850E-02  2.51570839E-01
 -6.13286501E-01 -4.70143017E-01 -1.06935364E-01  3.19912852E-01  5.20311932E-02
 -1.07941500E-01 -1.70322557E-02 -8.92612912E-03  2.24151168E-01 -5.98713518E-01
 -1.99059852E-02 -8.68932881E-02  3.68140861E-01  1.10373321E-01  1.12234470E+00
 -3.13290954E-02  6.63238072E-01  1.53754496E-02 -4.15640021E-02  1.50835579E-01
 -1.17332123E-01 -1.18360365E-01 -1.90007494E-01  3.25716254E-01 -2.67417887E-01
 -2.91869085E-01  4.44161505E-02 -3.04584584E-02  1.09428247E-02 -2.22338362E-01
 -6.88788046E-02 -9.95076040E-01  2.81858050E-02 -5.51168884E-01  3.20542639E-02
 -7.46743357E-02 -8.61283371E-01  8.89751159E-02  2.14325173E+00  3.02859010E-02
 -1.64264389E-01 -3.14410684E-01 -1.86510558E-02 -2.74383069E-01  1.23248884E-01
 -1.61111891E-01  2.57507258E-02  2.88033691E-01 -2.76685098E-02  1.40730803E-01
  1.38318320E-01 -1.06044047E-01 -9.21250800E-02 -1.61483318E-02 -3.63517302E-02
  3.37925233E-01 -1.15671151E-01  1.17190968E+00 -8.70122238E-01 -4.56270049E-01
  2.12828283E-01 -1.62817780E-02 -2.02858444E-02 -3.44338197E-01 -2.94593352E-01
 -4.41938603E-01  6.09475874E-01  3.26224330E-01  3.27149529E-01  8.79656728E-01
  5.18141586E-02 -1.00294599E-01 -2.21883538E-01  1.27428073E-01 -1.59829808E-01
 -6.59472868E-01  1.98221385E-01 -6.95529972E-01  9.64630331E-01  6.32690561E-02
 -1.17430056E-01  8.58207146E-01 -2.81881087E-01 -1.52326663E-03  5.44470626E-02
 -1.69615807E-01 -7.02368879E-01  2.26735293E-01 -1.65260813E-01  1.86786788E-01
  7.85321444E-01 -4.16942890E-01 -4.13437591E-02  3.18317390E-01 -1.31761570E-01
 -3.66948090E-01  3.97620233E-01  1.16497073E-01  1.17712756E-01  3.05453569E-01
 -6.19688325E-01 -2.16092023E-02 -3.36788771E-02  8.33219056E-02 -4.00974204E-01
 -4.07960203E-02  3.90605245E-01 -2.13584333E-01  2.08159388E-01 -1.79828305E-01
 -3.22931848E-01  2.58308818E-01 -2.66612480E-01  1.86197825E-01 -1.63391178E-02
 -3.23418278E-03 -6.80037023E-01 -2.63801626E-01 -1.84090618E-01  1.70599076E-01
  7.14910883E-01  6.36255690E-01 -4.73309816E-02 -2.36510477E-01  2.65625370E-03
 -5.16491102E-01  1.36097156E-01  4.86342253E-02 -3.53714080E-01  2.39455591E-01
  1.07686463E-01  1.42855124E-01  1.77060668E-02 -5.91761901E-01 -1.11594639E-01
 -4.50571959E-01 -7.86740546E-04 -9.33725930E-03 -5.69792702E-01  3.60553395E-01
  3.82958242E-01  3.12714056E-02  8.17953056E-01 -5.75537660E-01 -5.48337892E-01
  5.14170466E-01 -4.74067524E-01  1.64565233E-01  3.14687015E-01 -1.43815858E-02
  9.28923610E-02  4.88289017E-01 -4.90262660E-01 -4.32461277E-02 -1.55173976E-02
 -7.16210635E-01  7.46226562E-01  3.24709279E-01 -1.13034975E-02  1.11225735E-02
 -9.80417465E-02  3.18104731E-01 -5.08153462E-01  1.19496428E-01  1.98643577E-01
 -5.13112386E-02  4.56855208E-01 -3.78506379E-02  4.32459393E-01 -6.87476770E-01
 -4.72663972E-02  3.49782918E-02 -5.17048977E-01 -3.58644658E-01 -2.39086209E-02
  6.57864686E-01  8.57414304E-01  4.93542195E-01  1.37464030E-02 -8.05936598E-01
  2.20481176E-02 -3.38831158E-01 -1.20378920E-01 -6.96979221E-02 -5.03039727E-01
  5.99740560E-01  1.24051791E-01  4.68508303E-02  4.55895693E-01  1.90408743E-01
 -6.79335565E-01  7.18912987E-02 -5.19086748E-02 -1.76321775E-02  2.38582593E-01
 -5.29105730E-01 -2.40823003E-02  1.04460333E-01 -4.81382899E-01  9.39258564E-01
  1.06414539E-01 -4.19416100E-01 -2.80441704E-02  1.73881694E-01  5.91989829E-02
  7.22606206E-01  1.14459075E-01 -1.14320829E-01 -1.88162206E-01 -7.22332498E-01
 -5.96949864E-01 -1.75488364E-01 -5.08166957E-01 -6.82068243E-01  1.09331703E+00
  9.65143271E-03  5.02344799E-01  1.02478050E-02 -1.55260272E-01 -8.08835702E-02
 -1.34017544E+00 -1.63304155E-01  3.49353931E-01 -7.94552737E-01  4.54725240E-02
 -1.66537617E+00  3.35497516E-02 -6.37429256E-02  2.55983043E-01  3.03167869E+00
 -2.30240111E-02  3.91392053E-01 -1.28613107E+00  2.53205815E-01  2.81878177E-02
 -2.11973066E-01 -9.51141141E-01  3.54449396E-02 -1.54875657E+00 -1.10893885E-01
 -1.02981582E-01 -3.94953549E-01  2.52063349E+00  6.66108146E-01  2.94450716E-01
  9.67920170E-01  2.05831910E-02 -3.36359821E-01 -1.62044953E-02 -3.82964936E-02
  2.06134835E-01  3.01232185E-01 -5.93282540E-02  5.75425254E-01  1.54176329E-01
 -6.90502599E-01 -2.83618556E-01 -5.75808407E-01 -8.22187122E-01
Total SCF Density                          R   N=         253
  2.09016256E+00 -1.95265228E-01  5.41087565E-01  3.13273174E-02 -7.95675283E-02
  6.17174878E-01 -2.41674111E-03 -1.10679982E-02 -8.89353021E-04  8.83640030E-01
  2.39625373E-02 -8.22952505E-02  5.03382835E-02  4.43630313E-02  4.42415518E-01
 -2.94924400E-01  6.19804110E-01 -1.51625391E-01  6.75714053E-02 -2.51774035E-02
  7.53171444E-01  1.43035589E-02 -5.20623179E-02  3.81284331E-01  1.03781009E-02
  5.46137630E-02 -9.26178427E-02  2.37102289E-01 -7.09717276E-03 -1.62789667E-03
  3.70883327E-03  6.40065541E-01  5.37452877E-02  6.44767223E-02  1.08905897E-02
  4.67665210E-01 -6.37045145E-04 -3.76499229E-02  6.18799116E-02  7.06618919E-02
  3.41052000E-01  2.31601926E-02  5.64649062E-02  7.17433401E-02  2.75809653E-01
 -6.33043401E-03  1.49537863E-02  2.64051721E-03  1.11642554E-02 -9.81967789E-04
  4.35550772E-02  3.10632902E-03  5.83527935E-03  2.33037182E-02  2.09104112E+00
  1.81120123E-02 -3.88623366E-02 -3.08368217E-03 -1.40174623E-02 -1.74355015E-02
 -1.06422716E-01 -6.49763261E-03 -9.32697058E-03 -6.46459952E-02 -1.99991540E-01
  5.54659376E-01 -2.46859063E-03  5.39641653E-03 -8.22183148E-02  1.04366872E-03
 -2.65540047E-02  1.41443502E-02 -6.09270292E-02  5.70037283E-04 -2.51472366E-02
 -1.15928530E-04 -9.10615078E-03  9.01932921E-01  2.12547561E-02 -2.54717035E-02
  9.89604315E-03 -1.29619543E-01 -1.42955679E-01 -1.42291012E-01  4.11933714E-03
 -1.43435410E-01 -1.68211844E-01  1.45640509E-02 -2.05000735E-02 -5.09198269E-03
  7.07092013E-01  1.35995515E-02 -8.95135234E-03  1.90421629E-02  7.68675554E-02
 -3.41139413E-01 -4.61088436E-02 -7.69924533E-03  4.95263365E-02 -2.50402732E-01
 -3.24316736E-02  8.40857788E-02 -1.52270678E-02 -7.78755009E-02  3.50117742E-01
  3.84952768E-02 -8.15220641E-02 -1.67657631E-02 -1.15049358E-01 -4.80141277E-02
 -1.55944799E-01 -1.97391270E-02 -7.52376046E-02 -8.87784807E-02 -2.89832813E-01
  6.18880482E-01  2.19337851E-02 -1.38263856E-01  1.46432651E-01  7.41397500E-01
 -2.57848682E-03  5.54121789E-03 -7.60361598E-02  8.87588375E-04 -1.35685734E-02
  1.45424047E-02 -5.39784283E-02  7.24571368E-04 -1.47550231E-02 -1.52618720E-03
 -4.38003525E-03  6.57747513E-01 -5.80780307E-03 -1.71394601E-02  1.82173431E-02
  4.80223046E-01  8.93152488E-03 -8.91634659E-03  1.78817095E-02 -1.42454200E-01
 -9.71912827E-02 -8.16630679E-02  8.37914502E-03 -1.31483882E-01 -1.08117555E-01
  9.61995354E-03 -2.51580814E-02 -2.35228276E-03  4.10534898E-01 -3.97088531E-02
 -8.41190129E-02 -3.52216467E-03  2.44756471E-01 -1.14600265E-02  3.46688465E-02
  2.45472427E-02  9.89364274E-02 -2.11338564E-01  1.68619625E-02  4.19548685E-03
  6.63135871E-02 -1.52766331E-01 -9.43314637E-03  4.45826887E-02 -2.60414365E-02
 -2.33220960E-02  2.09629802E-01  6.44744585E-02 -2.30084359E-02 -1.40305208E-02
  1.34215283E-01 -2.75611410E-02  5.89272132E-02  3.40924897E-01 -1.69678862E-02
 -2.63398100E-02  2.57805522E-02  2.07944348E-01 -1.02948520E-02 -2.19669134E-03
  4.12597610E-03 -6.84204630E-03 -5.85354440E-02  1.14852352E-02  4.13346043E-02
 -1.80198380E-02 -5.22773326E-02  1.69641401E-02  3.97074399E-02  2.12312638E-01
  2.44211505E-02 -4.63871851E-02  1.39744891E-01 -1.02882156E-02 -3.22979515E-02
 -7.57139630E-02  8.37742037E-02 -8.72233719E-03 -2.22389429E-02 -6.26055233E-03
  1.82282141E-02 -2.78483850E-02  1.16896841E-02  4.67669523E-02  2.51765730E-02
 -2.46270522E-02  1.09467068E-02  2.83480211E-02  7.63899300E-02  3.91772106E-02
  3.12497928E-03 -4.77951937E-03 -1.52926762E-02  4.87315274E-02  5.89178118E-02
 -4.96556872E-02 -2.19783506E-03  1.27243160E-02  5.23244743E-03 -3.90532964E-02
  8.60987762E-02 -7.52731450E-03  3.62851276E-01 -1.41858716E-01 -3.42673219E-04
 -3.34332061E-03  1.94097788E-01 -6.45826759E-02 -1.83085279E-02 -1.28181120E-02
  2.68441988E-01  1.15755503E-02 -7.96236889E-03 -1.75063319E-02  5.84056027E-02
 -1.23624804E-01 -2.93342137E-02 -1.55531362E-02  2.92915980E-02 -9.78186866E-02
  2.79073931E-02 -4.01514292E-02  1.09749508E-02  1.26833718E-01  7.67894508E-02
 -6.16315739E-02  6.25135067E-03  7.11561321E-02  5.43402683E-02 -1.76302794E-03
  7.52544740E-03  3.51917479E-02  5.90221022E-02
QEq coupling tensors                       R   N=          24
 -3.31540837E-01 -3.11947662E-03  2.69372487E+00  5.98707600E-01  4.41129818E-01
 -2.36218404E+00  2.89845107E+00 -6.03381446E-02  5.99820997E-01 -1.69058206E-01
 -7.86027884E-01 -3.49827206E+00 -3.96601478E-01  1.35756196E-02  2.34270596E-01
  5.11069396E-02 -1.34762708E-02  1.62330882E-01  5.79727791E-01  1.20872936E-02
 -6.77908443E-01  2.69642931E-02  5.09591840E-01  9.81806514E-02
Mulliken Charges                           R   N=           4
 -5.23701892E-01 -3.71566175E-01  4.46075725E-01  4.49192342E-01
ONIOM Charges                              I   N=          16
           0           0           0           0           0           0
           0           0           0           0           0           0
           0           0           0           0
ONIOM Multiplicities                       I   N=          16
           1           0           0           0           0           0
           0           0           0           0           0           0
           0           0           0           0
Atom Layers                                I   N=           4
           1           1           1           1
Atom Modifiers                             I   N=           4
           0           0           0           0
Force Field                                I                0
Int Atom Modified Types                    I   N=           4
           0           0           0           0
Link Atoms                                 I   N=           4
           0           0           0           0
Atom Modified MM Charges                   R   N=           4
  0.00000000E+00  0.00000000E+00  0.00000000E+00  0.00000000E+00
Link Distances                             R   N=          16
  0.00000000E+00  0.00000000E+00  0.00000000E+00  0.00000000E+00  0.00000000E+00
  0.00000000E+00  0.00000000E+00  0.00000000E+00  0.00000000E+00  0.00000000E+00
  0.00000000E+00  0.00000000E+00  0.00000000E+00  0.00000000E+00  0.00000000E+00
  0.00000000E+00
Cartesian Gradient                         R   N=          12
 -6.72680407E-02  6.95072861E-02  9.61022689E-02  1.29094673E-02  1.41951433E-01
 -1.17564235E-01  3.42285558E-02  1.40910195E-02  3.94942293E-02  2.01300177E-02
 -2.25549739E-01 -1.80322636E-02
Cartesian Force Constants                  R   N=          78
  3.67652630E-01 -1.09569782E-02  2.90088763E-02 -2.98568032E-02  1.11587195E-01
  4.70237341E-01 -2.03579398E-02  4.70451149E-03 -2.43390421E-03 -7.79319864E-02
  6.40191079E-03  8.45332836E-02  9.61450777E-03 -2.82645391E-03  6.63055674E-01
  3.84779783E-02 -1.15785895E-01 -3.30992242E-01 -4.14514718E-02 -4.37339782E-01
  4.26004536E-01 -4.02896087E-01  8.51004451E-03  2.68686422E-02 -1.01762935E-03
  3.41129529E-04 -3.18156364E-03  4.10668554E-01  2.13930339E-03 -3.71770212E-02
  3.79544192E-03 -5.60217422E-03  4.08979025E-03  4.30854023E-03 -1.21850332E-02
  2.90665052E-02 -2.57906428E-02  4.79919492E-03 -3.38255026E-02  4.46218891E-02
 -8.15627135E-03 -4.91907512E-02 -2.91807277E-02  7.24463925E-03  9.53952864E-02
  5.56013975E-02 -2.25757777E-03  5.42206522E-03  9.93075555E-02 -3.91658641E-03
  6.15505715E-03 -6.75483683E-03  1.56479040E-02  1.03494814E-02 -1.48154116E-01
  2.41576406E-03 -7.63651387E-02 -1.24997145E-01  3.72411664E-03 -7.51678748E-01
  5.48817137E-01  3.33385918E-03  4.02072575E-03 -3.88756282E-03 -9.47373987E-03
  8.24023161E-01  1.71694678E-02 -6.00495541E-04 -1.05419596E-01 -7.36513136E-04
  4.35881546E-01 -4.58215433E-02  5.49364912E-03 -1.53486214E-02 -1.23790327E-02
 -2.19266037E-02 -4.19932429E-01  1.63620172E-01
Dipole Moment                              R   N=           3
  8.89915262E-01  6.62988349E-01 -2.94688688E-01
Dipole Derivatives                         R   N=          36
 -2.34295557E-01  1.78518433E-02  1.66175051E-01  7.42259741E-02 -4.94800409E-01
  5.86703742E-03  4.88846303E-02 -8.35572664E-02 -5.03972732E-01 -4.17845408E-01
  1.88312001E-02 -1.69463016E-01  5.48007922E-03 -3.28463594E-01 -1.55152417E-01
  2.28657608E-02  3.30416018E-02 -9.47486915E-02  2.15025310E-01  1.81684120E-03
 -3.12210675E-02 -4.48575483E-02  4.43973079E-01  2.41561454E-02 -3.37100991E-02
 -1.02529721E-02  2.51237210E-01  4.37115656E-01 -3.84998845E-02  3.45090326E-02
 -3.48485051E-02  3.79290925E-01  1.25129235E-01 -3.80402919E-02  6.07686367E-02
  3.47484214E-01
Polarizability                             R   N=           6
  6.58141820E+00 -8.41017140E-02  4.26835620E+00 -1.45378248E+00  3.99687823E-01
  1.78903287E+01
Polarizability Derivatives                 R   N=          72
 -7.28724595E+00 -3.66297356E-01  8.60423995E-02 -2.19223054E+00 -8.95819158E-02
 -2.13564118E+00 -5.41860348E-01 -1.58586675E+00 -1.03832823E+00  1.49524014E-01
 -3.99537834E+00  4.28401595E-01 -7.75222243E-01 -1.10357267E-02 -1.34131179E-01
 -2.35075495E-01 -6.13520644E-01 -1.90156418E+01 -1.15940946E+00 -6.69192705E-01
 -1.05510007E-01  4.94422898E+00 -5.10484601E-02  9.57829234E-01  2.70761832E-01
 -4.27038831E-01 -2.20632926E+00 -8.20299110E-02  4.99994077E+00  1.16651842E+00
  1.35389260E-01 -8.45800963E-02  8.62163250E-01 -1.16322384E+00  6.54285115E-01
  1.82919838E+01  8.19010349E+00 -2.30524344E-01 -1.78345494E-01 -2.88931734E+00
  7.45492710E-02  1.30422823E+00  2.68596786E-01  2.11022909E+00  4.94581872E-02
 -1.15382856E-01 -7.23051471E-01 -8.84923621E-02  5.60552306E-02  5.07193998E-02
  3.95480065E-02  1.56924312E+00 -5.49976065E-02 -2.28291216E-01  2.56551916E-01
  1.26601440E+00  1.97813102E-01  1.37318896E-01  6.60811049E-02 -1.26416278E-01
  2.50172993E-03 -9.73235058E-02  3.19519930E+00  4.78887537E-02 -2.81510966E-01
 -1.50642765E+00  5.83777752E-01  4.48964232E-02 -7.67580077E-01 -1.70943786E-01
  1.42331351E-02  9.51949193E-01
HyperPolarizability                        R   N=          10
  3.03019941E+01 -1.56111132E-01 -4.61191019E-01  1.50402557E+01 -1.12585712E+01
  2.28419787E-01  2.10280377E+00  1.69808899E+00 -2.78328138E+00  1.50093416E+01
NFreq for FD properties                    I              100
Frequencies for FD properties              R   N=         100
  0.00000000E+00  1.84000000E-01  1.84100000E-01  1.84200000E-01  1.84300000E-01
  1.84400000E-01  1.84500000E-01  1.84600000E-01  1.84700000E-01  1.84800000E-01
  1.84900000E-01  1.85000000E-01  1.85100000E-01  1.85200000E-01  1.85300000E-01
  1.85400000E-01  1.85500000E-01  1.85600000E-01  1.85700000E-01  1.85800000E-01
  1.85900000E-01  1.86000000E-01  1.86100000E-01  1.86200000E-01  1.86300000E-01
  1.86400000E-01  1.86500000E-01  1.86600000E-01  1.86700000E-01  1.86800000E-01
  1.86900000E-01  1.87000000E-01  1.87100000E-01  1.87200000E-01  1.87300000E-01
  1.87400000E-01  1.87500000E-01  1.87600000E-01  1.87700000E-01  1.87800000E-01
  1.87900000E-01  1.88000000E-01  1.88100000E-01  1.88200000E-01  1.88300000E-01
  1.88400000E-01  1.88500000E-01  1.88600000E-01  1.88700000E-01  1.88800000E-01
  1.88900000E-01  1.89000000E-01  1.89100000E-01  1.89200000E-01  1.89300000E-01
  1.89400000E-01  1.89500000E-01  1.89600000E-01  1.89700000E-01  1.89800000E-01
  1.89900000E-01  1.90000000E-01  1.90100000E-01  1.90200000E-01  1.90300000E-01
  1.90400000E-01  1.90500000E-01  1.90600000E-01  1.90700000E-01  1.90800000E-01