 Entering Link 1 = D:\G09W\l1.exe PID=      4440.
  
 Copyright (c) 1988,1990,1992,1993,1995,1998,2003,2009,2010,
            Gaussian, Inc.  All Rights Reserved.
  
 This is part of the Gaussian(R) 09 program.  It is based on
 the Gaussian(R) 03 system (copyright 2003, Gaussian, Inc.),
 the Gaussian(R) 98 system (copyright 1998, Gaussian, Inc.),
 the Gaussian(R) 94 system (copyright 1995, Gaussian, Inc.),
 the Gaussian 92(TM) system (copyright 1992, Gaussian, Inc.),
 the Gaussian 90(TM) system (copyright 1990, Gaussian, Inc.),
 the Gaussian 88(TM) system (copyright 1988, Gaussian, Inc.),
 the Gaussian 86(TM) system (copyright 1986, Carnegie Mellon
 University), and the Gaussian 82(TM) system (copyright 1983,
 Carnegie Mellon University). Gaussian is a federally registered
 trademark of Gaussian, Inc.
  
 This software contains proprietary and confidential information,
 including trade secrets, belonging to Gaussian, Inc.
  
 This software is provided under written license and may be
 used, copied, transmitted, or stored only in accord with that
 written license.
  
 The following legend is applicable only to US Government
 contracts under FAR:
  
                    RESTRICTED RIGHTS LEGEND
  
 Use, reproduction and disclosure by the US Government is
 subject to restrictions as set forth in subparagraphs (a)
 and (c) of the Commercial Computer Software - Restricted
 Rights clause in FAR 52.227-19.
  
 Gaussian, Inc.
 340 Quinnipiac St., Bldg. 40, Wallingford CT 06492
  
  
 ---------------------------------------------------------------
 Warning -- This program may not be used in any manner that
 competes with the business of Gaussian, Inc. or will provide
 assistance to any competitor of Gaussian, Inc.  The licensee
 of this program is prohibited from giving any competitor of
 Gaussian, Inc. access to this program.  By using this program,
 the user acknowledges that Gaussian, Inc. is engaged in the
 business of creating and licensing software in the field of
 computational chemistry and represents and warrants to the
 licensee that it is not a competitor of Gaussian, Inc. and that
 it will not use this program in any manner prohibited above.
 ---------------------------------------------------------------
  

 Cite this work as:
 Gaussian 09, Revision B.01,
 M. J. Frisch, G. W. Trucks, H. B. Schlegel, G. E. Scuseria, 
 M. A. Robb, J. R. Cheeseman, G. Scalmani, V. Barone, B. Mennucci, 
 G. A. Petersson, H. Nakatsuji, M. Caricato, X. Li, H. P. Hratchian, 
 A. F. Izmaylov, J. Bloino, G. Zheng, J. L. Sonnenberg, M. Hada, 
 M. Ehara, K. Toyota, R. Fukuda, J. Hasegawa, M. Ishida, T. Nakajima, 
 Y. Honda, O. Kitao, H. Nakai, T. Vreven, J. A. Montgomery, Jr., 
 J. E. Peralta, F. Ogliaro, M. Bearpark, J. J. Heyd, E. Brothers, 
 K. N. Kudin, V. N. Staroverov, T. Keith, R. Kobayashi, J. Normand, 
 K. Raghavachari, A. Rendell, J. C. Burant, S. S. Iyengar, J. Tomasi, 
 M. Cossi, N. Rega, J. M. Millam, M. Klene, J. E. Knox, J. B. Cross, 
 V. Bakken, C. Adamo, J. Jaramillo, R. Gomperts, R. E. Stratmann, 
 O. Yazyev, A. J. Austin, R. Cammi, C. Pomelli, J. W. Ochterski, 
 R. L. Martin, K. Morokuma, V. G. Zakrzewski, G. A. Voth, 
 P. Salvador, J. J. Dannenberg, S. Dapprich, A. D. Daniels, 
 O. Farkas, J. B. Foresman, J. V. Ortiz, J. Cioslowski, 
 and D. J. Fox, Gaussian, Inc., Wallingford CT, 2010.
 
 ******************************************
 Gaussian 09:  IA32W-G09RevB.01 12-Aug-2010
                29-Aug-2019 
 ******************************************
 --------------------------
 #p UMP2(Full)/6-31G nosymm
 --------------------------
 1/38=1/1;
 2/12=2,15=1,17=6,18=5,40=1/2;
 3/5=1,6=6,11=2,16=1,25=1,30=1,116=2/1,2,3;
 4//1;
 5/5=2,38=5/2;
 8/10=90/1;
 9/16=-3/6;
 6/7=2,8=2,9=2,10=2/1;
 99/5=1,9=1/99;
 Leave Link    1 at Thu Aug 29 21:54:23 2019, MaxMem=          0 cpu:       0.0
 (Enter D:\G09W\l101.exe)
 ---
 H2O
 ---
 Symbolic Z-matrix:
 Charge =  1 Multiplicity = 2
 O                     0.        0.        0. 
 H                     1.        0.        0. 
 H                     0.        1.        0. 
 
 NAtoms=      3 NQM=      3 NQMF=      0 NMic=      0 NMicF=      0 NTot=      3.
                    Isotopes and Nuclear Properties:
 (Nuclear quadrupole moments (NQMom) in fm**2, nuclear magnetic moments (NMagM)
  in nuclear magnetons)

  Atom         1           2           3
 IAtWgt=          16           1           1
 AtmWgt=  15.9949146   1.0078250   1.0078250
 NucSpn=           0           1           1
 AtZEff=   0.0000000   0.0000000   0.0000000
 NQMom=    0.0000000   0.0000000   0.0000000
 NMagM=    0.0000000   2.7928460   2.7928460
 Leave Link  101 at Thu Aug 29 21:54:23 2019, MaxMem=   33554432 cpu:       0.0
 (Enter D:\G09W\l202.exe)
                          Input orientation:                          
 ---------------------------------------------------------------------
 Center     Atomic      Atomic             Coordinates (Angstroms)
 Number     Number       Type             X           Y           Z
 ---------------------------------------------------------------------
      1          8           0        0.000000    0.000000    0.000000
      2          1           0        1.000000    0.000000    0.000000
      3          1           0        0.000000    1.000000    0.000000
 ---------------------------------------------------------------------
                    Distance matrix (angstroms):
                    1          2          3
     1  O    0.000000
     2  H    1.000000   0.000000
     3  H    1.000000   1.414214   0.000000
 Symmetry turned off by external request.
 Stoichiometry    H2O(1+,2)
 Framework group  C2V[C2(O),SGV(H2)]
 Deg. of freedom     2
 Full point group                 C2V     NOp   4
 Rotational constants (GHZ):    564.6475607    501.4551003    265.5892435
 Leave Link  202 at Thu Aug 29 21:54:23 2019, MaxMem=   33554432 cpu:       0.0
 (Enter D:\G09W\l301.exe)
 Standard basis: 6-31G (6D, 7F)
 Ernie: Thresh=  0.10000D-02 Tol=  0.10000D-05 Strict=F.
 Integral buffers will be    262144 words long.
 Raffenetti 2 integral format.
 Two-electron integral symmetry is turned off.
    13 basis functions,    30 primitive gaussians,    13 cartesian basis functions
     5 alpha electrons        4 beta electrons
       nuclear repulsion energy         8.8410201301 Hartrees.
 IExCor=    0 DFT=F Ex=HF Corr=None ExCW=0 ScaHFX=  1.000000
 ScaDFX=  1.000000  1.000000  1.000000  1.000000 ScalE2=  1.000000  1.000000
 IRadAn=      0 IRanWt=     -1 IRanGd=            0 ICorTp=0
 NAtoms=    3 NActive=    3 NUniq=    3 SFac= 1.00D+00 NAtFMM=   50 NAOKFM=F Big=F
 Leave Link  301 at Thu Aug 29 21:54:23 2019, MaxMem=   33554432 cpu:       0.0
 (Enter D:\G09W\l302.exe)
 NPDir=0 NMtPBC=     1 NCelOv=     1 NCel=       1 NClECP=     1 NCelD=      1
         NCelK=      1 NCelE2=     1 NClLst=     1 CellRange=     0.0.
 One-electron integrals computed using PRISM.
 NBasis=    13 RedAO= T  NBF=    13
 NBsUse=    13 1.00D-06 NBFU=    13
 Leave Link  302 at Thu Aug 29 21:54:23 2019, MaxMem=   33554432 cpu:       0.0
 (Enter D:\G09W\l303.exe)
 DipDrv:  MaxL=1.
 Leave Link  303 at Thu Aug 29 21:54:24 2019, MaxMem=   33554432 cpu:       0.0
 (Enter D:\G09W\l401.exe)
 Harris functional with IExCor=  205 diagonalized for initial guess.
 ExpMin= 1.61D-01 ExpMax= 5.48D+03 ExpMxC= 8.25D+02 IAcc=1 IRadAn=         1 AccDes= 0.00D+00
 HarFok:  IExCor=  205 AccDes= 0.00D+00 IRadAn=         1 IDoV= 1
 ScaDFX=  1.000000  1.000000  1.000000  1.000000
 FoFCou: FMM=F IPFlag=           0 FMFlag=      100000 FMFlg1=           0
         NFxFlg=           0 DoJE=T BraDBF=F KetDBF=T FulRan=T
         Omega=  0.000000  0.000000  1.000000  0.000000  0.000000 ICntrl=     500 IOpCl=  0
         NMat0=    1 NMatS0=    1 NMatT0=    0 NMatD0=    1 NMtDS0=    0 NMtDT0=    0
         I1Cent=           4 NGrid=           0.
 Symmetry not used in FoFCou.
 Harris En= -75.6655889580855    
 Initial guess <Sx>= 0.0000 <Sy>= 0.0000 <Sz>= 0.5000 <S**2>= 0.7500 S= 0.5000
 Leave Link  401 at Thu Aug 29 21:54:24 2019, MaxMem=   33554432 cpu:       0.0
 (Enter D:\G09W\l502.exe)
 UHF open shell SCF:
 Requested convergence on RMS density matrix=1.00D-08 within 128 cycles.
 Requested convergence on MAX density matrix=1.00D-06.
 Requested convergence on             energy=1.00D-06.
 No special actions if energy rises.
 Using DIIS extrapolation, IDIIS=  1040.
 Two-electron integral symmetry not used.
 Keep R1 and R2 ints in memory in canonical form, NReq=828096.
 IEnd=       19703 IEndB=       19703 NGot=    33554432 MDV=    33543432
 LenX=    33543432 LenY=    33542550
 Symmetry not used in FoFDir.
 MinBra= 0 MaxBra= 1 Meth= 1.
 IRaf=       0 NMat=   1 IRICut=       1 DoRegI=T DoRafI=F ISym2E= 0 JSym2E=0.

 Cycle   1  Pass 1  IDiag  1:
 E= -75.5506663016024    
 DIIS: error= 4.05D-02 at cycle   1 NSaved=   1.
 NSaved= 1 IEnMin= 1 EnMin= -75.5506663016024     IErMin= 1 ErrMin= 4.05D-02
 ErrMax= 4.05D-02 EMaxC= 1.00D-01 BMatC= 1.11D-01 BMatP= 1.11D-01
 IDIUse=3 WtCom= 5.95D-01 WtEn= 4.05D-01
 Coeff-Com:  0.100D+01
 Coeff-En:   0.100D+01
 Coeff:      0.100D+01
 Gap=     0.968 Goal=   None    Shift=    0.000
 Gap=     0.741 Goal=   None    Shift=    0.000
 GapD=    0.741 DampG=2.000 DampE=0.500 DampFc=1.0000 IDamp=-1.
 RMSDP=9.81D-03 MaxDP=5.59D-02              OVMax= 3.53D-02

 Cycle   2  Pass 1  IDiag  1:
 E= -75.5642511047282     Delta-E=       -0.013584803126 Rises=F Damp=F
 DIIS: error= 1.61D-02 at cycle   2 NSaved=   2.
 NSaved= 2 IEnMin= 2 EnMin= -75.5642511047282     IErMin= 2 ErrMin= 1.61D-02
 ErrMax= 1.61D-02 EMaxC= 1.00D-01 BMatC= 6.34D-03 BMatP= 1.11D-01
 IDIUse=3 WtCom= 8.39D-01 WtEn= 1.61D-01
 Coeff-Com:  0.670D-01 0.933D+00
 Coeff-En:   0.000D+00 0.100D+01
 Coeff:      0.563D-01 0.944D+00
 Gap=     0.930 Goal=   None    Shift=    0.000
 Gap=     0.727 Goal=   None    Shift=    0.000
 RMSDP=2.38D-03 MaxDP=1.96D-02 DE=-1.36D-02 OVMax= 1.80D-02

 Cycle   3  Pass 1  IDiag  1:
 E= -75.5658138372437     Delta-E=       -0.001562732515 Rises=F Damp=F
 DIIS: error= 6.98D-03 at cycle   3 NSaved=   3.
 NSaved= 3 IEnMin= 3 EnMin= -75.5658138372437     IErMin= 3 ErrMin= 6.98D-03
 ErrMax= 6.98D-03 EMaxC= 1.00D-01 BMatC= 1.16D-03 BMatP= 6.34D-03
 IDIUse=3 WtCom= 9.30D-01 WtEn= 6.98D-02
 Coeff-Com: -0.493D-01 0.145D+00 0.904D+00
 Coeff-En:   0.000D+00 0.000D+00 0.100D+01
 Coeff:     -0.458D-01 0.135D+00 0.911D+00
 Gap=     0.942 Goal=   None    Shift=    0.000
 Gap=     0.726 Goal=   None    Shift=    0.000
 RMSDP=1.11D-03 MaxDP=9.40D-03 DE=-1.56D-03 OVMax= 5.68D-03

 Cycle   4  Pass 1  IDiag  1:
 E= -75.5661785892009     Delta-E=       -0.000364751957 Rises=F Damp=F
 DIIS: error= 3.04D-03 at cycle   4 NSaved=   4.
 NSaved= 4 IEnMin= 4 EnMin= -75.5661785892009     IErMin= 4 ErrMin= 3.04D-03
 ErrMax= 3.04D-03 EMaxC= 1.00D-01 BMatC= 2.06D-04 BMatP= 1.16D-03
 IDIUse=3 WtCom= 9.70D-01 WtEn= 3.04D-02
 Coeff-Com:  0.238D-01-0.197D+00-0.539D+00 0.171D+01
 Coeff-En:   0.000D+00 0.000D+00 0.000D+00 0.100D+01
 Coeff:      0.230D-01-0.191D+00-0.523D+00 0.169D+01
 Gap=     0.943 Goal=   None    Shift=    0.000
 Gap=     0.724 Goal=   None    Shift=    0.000
 RMSDP=8.99D-04 MaxDP=6.02D-03 DE=-3.65D-04 OVMax= 7.19D-03

 Cycle   5  Pass 1  IDiag  1:
 E= -75.5663366680702     Delta-E=       -0.000158078869 Rises=F Damp=F
 DIIS: error= 1.13D-03 at cycle   5 NSaved=   5.
 NSaved= 5 IEnMin= 5 EnMin= -75.5663366680702     IErMin= 5 ErrMin= 1.13D-03
 ErrMax= 1.13D-03 EMaxC= 1.00D-01 BMatC= 3.02D-05 BMatP= 2.06D-04
 IDIUse=3 WtCom= 9.89D-01 WtEn= 1.13D-02
 Coeff-Com: -0.100D-01 0.124D+00 0.246D+00-0.128D+01 0.192D+01
 Coeff-En:   0.000D+00 0.000D+00 0.000D+00 0.000D+00 0.100D+01
 Coeff:     -0.989D-02 0.123D+00 0.244D+00-0.127D+01 0.191D+01
 Gap=     0.945 Goal=   None    Shift=    0.000
 Gap=     0.723 Goal=   None    Shift=    0.000
 RMSDP=5.19D-04 MaxDP=3.06D-03 DE=-1.58D-04 OVMax= 3.82D-03

 Cycle   6  Pass 1  IDiag  1:
 E= -75.5663682031009     Delta-E=       -0.000031535031 Rises=F Damp=F
 DIIS: error= 2.16D-04 at cycle   6 NSaved=   6.
 NSaved= 6 IEnMin= 6 EnMin= -75.5663682031009     IErMin= 6 ErrMin= 2.16D-04
 ErrMax= 2.16D-04 EMaxC= 1.00D-01 BMatC= 1.70D-06 BMatP= 3.02D-05
 IDIUse=3 WtCom= 9.98D-01 WtEn= 2.16D-03
 Coeff-Com:  0.378D-02-0.588D-01-0.979D-01 0.618D+00-0.119D+01 0.173D+01
 Coeff-En:   0.000D+00 0.000D+00 0.000D+00 0.000D+00 0.000D+00 0.100D+01
 Coeff:      0.377D-02-0.587D-01-0.977D-01 0.616D+00-0.119D+01 0.172D+01
 Gap=     0.945 Goal=   None    Shift=    0.000
 Gap=     0.723 Goal=   None    Shift=    0.000
 RMSDP=1.36D-04 MaxDP=7.63D-04 DE=-3.15D-05 OVMax= 9.67D-04

 Cycle   7  Pass 1  IDiag  1:
 E= -75.5663698086435     Delta-E=       -0.000001605543 Rises=F Damp=F
 DIIS: error= 1.55D-05 at cycle   7 NSaved=   7.
 NSaved= 7 IEnMin= 7 EnMin= -75.5663698086435     IErMin= 7 ErrMin= 1.55D-05
 ErrMax= 1.55D-05 EMaxC= 1.00D-01 BMatC= 1.43D-08 BMatP= 1.70D-06
 IDIUse=1 WtCom= 1.00D+00 WtEn= 0.00D+00
 Coeff-Com: -0.157D-02 0.247D-01 0.409D-01-0.259D+00 0.504D+00-0.766D+00
 Coeff-Com:  0.146D+01
 Coeff:     -0.157D-02 0.247D-01 0.409D-01-0.259D+00 0.504D+00-0.766D+00
 Coeff:      0.146D+01
 Gap=     0.945 Goal=   None    Shift=    0.000
 Gap=     0.723 Goal=   None    Shift=    0.000
 RMSDP=7.25D-06 MaxDP=2.84D-05 DE=-1.61D-06 OVMax= 5.18D-05

 Cycle   8  Pass 1  IDiag  1:
 E= -75.5663698164213     Delta-E=       -0.000000007778 Rises=F Damp=F
 DIIS: error= 3.34D-06 at cycle   8 NSaved=   8.
 NSaved= 8 IEnMin= 8 EnMin= -75.5663698164213     IErMin= 8 ErrMin= 3.34D-06
 ErrMax= 3.34D-06 EMaxC= 1.00D-01 BMatC= 6.55D-10 BMatP= 1.43D-08
 IDIUse=1 WtCom= 1.00D+00 WtEn= 0.00D+00
 Coeff-Com:  0.506D-03-0.792D-02-0.134D-01 0.830D-01-0.161D+00 0.248D+00
 Coeff-Com: -0.603D+00 0.145D+01
 Coeff:      0.506D-03-0.792D-02-0.134D-01 0.830D-01-0.161D+00 0.248D+00
 Coeff:     -0.603D+00 0.145D+01
 Gap=     0.945 Goal=   None    Shift=    0.000
 Gap=     0.723 Goal=   None    Shift=    0.000
 RMSDP=1.56D-06 MaxDP=7.01D-06 DE=-7.78D-09 OVMax= 1.22D-05

 Cycle   9  Pass 1  IDiag  1:
 E= -75.5663698168171     Delta-E=       -0.000000000396 Rises=F Damp=F
 DIIS: error= 7.40D-07 at cycle   9 NSaved=   9.
 NSaved= 9 IEnMin= 9 EnMin= -75.5663698168171     IErMin= 9 ErrMin= 7.40D-07
 ErrMax= 7.40D-07 EMaxC= 1.00D-01 BMatC= 2.29D-11 BMatP= 6.55D-10
 IDIUse=1 WtCom= 1.00D+00 WtEn= 0.00D+00
 Coeff-Com: -0.955D-04 0.149D-02 0.263D-02-0.157D-01 0.300D-01-0.464D-01
 Coeff-Com:  0.119D+00-0.403D+00 0.131D+01
 Coeff:     -0.955D-04 0.149D-02 0.263D-02-0.157D-01 0.300D-01-0.464D-01
 Coeff:      0.119D+00-0.403D+00 0.131D+01
 Gap=     0.945 Goal=   None    Shift=    0.000
 Gap=     0.723 Goal=   None    Shift=    0.000
 RMSDP=3.03D-07 MaxDP=1.62D-06 DE=-3.96D-10 OVMax= 2.75D-06

 Cycle  10  Pass 1  IDiag  1:
 E= -75.5663698168324     Delta-E=       -0.000000000015 Rises=F Damp=F
 DIIS: error= 1.70D-07 at cycle  10 NSaved=  10.
 NSaved=10 IEnMin=10 EnMin= -75.5663698168324     IErMin=10 ErrMin= 1.70D-07
 ErrMax= 1.70D-07 EMaxC= 1.00D-01 BMatC= 1.57D-12 BMatP= 2.29D-11
 IDIUse=1 WtCom= 1.00D+00 WtEn= 0.00D+00
 Coeff-Com:  0.107D-04-0.169D-03-0.339D-03 0.180D-02-0.327D-02 0.504D-02
 Coeff-Com: -0.134D-01 0.816D-01-0.581D+00 0.151D+01
 Coeff:      0.107D-04-0.169D-03-0.339D-03 0.180D-02-0.327D-02 0.504D-02
 Coeff:     -0.134D-01 0.816D-01-0.581D+00 0.151D+01
 Gap=     0.945 Goal=   None    Shift=    0.000
 Gap=     0.723 Goal=   None    Shift=    0.000
 RMSDP=9.37D-08 MaxDP=5.39D-07 DE=-1.53D-11 OVMax= 7.09D-07

 Cycle  11  Pass 1  IDiag  1:
 E= -75.5663698168334     Delta-E=       -0.000000000001 Rises=F Damp=F
 DIIS: error= 3.55D-08 at cycle  11 NSaved=  11.
 NSaved=11 IEnMin=11 EnMin= -75.5663698168334     IErMin=11 ErrMin= 3.55D-08
 ErrMax= 3.55D-08 EMaxC= 1.00D-01 BMatC= 3.04D-14 BMatP= 1.57D-12
 IDIUse=1 WtCom= 1.00D+00 WtEn= 0.00D+00
 Coeff-Com: -0.178D-05 0.291D-04 0.686D-04-0.313D-03 0.527D-03-0.796D-03
 Coeff-Com:  0.203D-02-0.220D-01 0.210D+00-0.639D+00 0.145D+01
 Coeff:     -0.178D-05 0.291D-04 0.686D-04-0.313D-03 0.527D-03-0.796D-03
 Coeff:      0.203D-02-0.220D-01 0.210D+00-0.639D+00 0.145D+01
 Gap=     0.945 Goal=   None    Shift=    0.000
 Gap=     0.723 Goal=   None    Shift=    0.000
 RMSDP=1.12D-08 MaxDP=5.74D-08 DE=-1.04D-12 OVMax= 5.73D-08

 Cycle  12  Pass 1  IDiag  1:
 E= -75.5663698168334     Delta-E=        0.000000000000 Rises=F Damp=F
 DIIS: error= 2.33D-09 at cycle  12 NSaved=  12.
 NSaved=12 IEnMin=11 EnMin= -75.5663698168334     IErMin=12 ErrMin= 2.33D-09
 ErrMax= 2.33D-09 EMaxC= 1.00D-01 BMatC= 1.67D-16 BMatP= 3.04D-14
 IDIUse=1 WtCom= 1.00D+00 WtEn= 0.00D+00
 Coeff-Com:  0.797D-07-0.139D-05-0.430D-05 0.151D-04-0.213D-04 0.295D-04
 Coeff-Com: -0.311D-04 0.157D-02-0.188D-01 0.612D-01-0.188D+00 0.114D+01
 Coeff:      0.797D-07-0.139D-05-0.430D-05 0.151D-04-0.213D-04 0.295D-04
 Coeff:     -0.311D-04 0.157D-02-0.188D-01 0.612D-01-0.188D+00 0.114D+01
 Gap=     0.945 Goal=   None    Shift=    0.000
 Gap=     0.723 Goal=   None    Shift=    0.000
 RMSDP=7.64D-10 MaxDP=3.31D-09 DE= 2.84D-14 OVMax= 3.52D-09

 SCF Done:  E(UHF) =  -75.5663698168     A.U. after   12 cycles
             Convg  =    0.7640D-09             -V/T =  1.9999
 <Sx>= 0.0000 <Sy>= 0.0000 <Sz>= 0.5000 <S**2>= 0.7568 S= 0.5034
 <L.S>= 0.000000000000E+00
 KE= 7.557181001654D+01 PE=-1.928731637894D+02 EE= 3.289396382596D+01
 Annihilation of the first spin contaminant:
 S**2 before annihilation     0.7568,   after     0.7500
 Leave Link  502 at Thu Aug 29 21:54:24 2019, MaxMem=   33554432 cpu:       0.0
 (Enter D:\G09W\l801.exe)
 Range of M.O.s used for correlation:     1    13
 NBasis=    13 NAE=     5 NBE=     4 NFC=     0 NFV=     0
 NROrb=     13 NOA=     5 NOB=     4 NVA=     8 NVB=     9
 Leave Link  801 at Thu Aug 29 21:54:25 2019, MaxMem=   33554432 cpu:       0.0
 (Enter D:\G09W\l906.exe)
 FulOut=F Deriv=F AODrv=F NAtomX=     3
   MMem=       13875  MDisk=           5 MDiskD=           5
  W3Min=        1170 MinDsk=       51848 NBas6D=          13
 NBas2D=         103    NTT=          91    LW2=     2000000
    MDV=    33549883 MDiskM=       25280 NBas2p=         103
 Fully in-core method, ICMem=     6015614.
 IMap=   1   2   3   4   5
 JobTyp=2 Pass  1 fully in-core, NPsUse=  1.
 Compute canonical integrals, IntTyp=   4.
 Symmetry not used in FoFDir.
 MinBra= 0 MaxBra= 1 Meth= 1.
 IRaf=       0 NMat=   1 IRICut=       1 DoRegI=T DoRafI=F ISym2E= 0 JSym2E=0.
 IMap=   1   2   3   4
 JobTyp=3 Pass  1 fully in-core, NPsUse=  1.
 Compute canonical integrals, IntTyp=   4.
 Spin components of T(2) and E(2):
     alpha-alpha T2 =       0.3840952681D-02 E2=     -0.1376774357D-01
     alpha-beta  T2 =       0.2186309295D-01 E2=     -0.7503023827D-01
     beta-beta   T2 =       0.1877269416D-02 E2=     -0.6618005196D-02
 The integrals were generated   2 times.
 (S**2,0)=  0.75677D+00           (S**2,1)=  0.75288D+00
 E(PUHF)=      -0.75568214846D+02        E(PMP2)=      -0.75663102325D+02
 ANorm=    0.1013696856D+01
 E2 =    -0.9541598704D-01 EUMP2 =    -0.75661785803869D+02
 Leave Link  906 at Thu Aug 29 21:54:25 2019, MaxMem=   33554432 cpu:       0.0
 (Enter D:\G09W\l601.exe)
 Copying SCF densities to generalized density rwf, IOpCl= 1 IROHF=0.

 **********************************************************************

            Population analysis using the SCF density.

 **********************************************************************

 Alpha  occ. eigenvalues --  -21.15076  -1.92056  -1.17475  -1.12990  -1.10422
 Alpha virt. eigenvalues --   -0.15928  -0.07111   0.59969   0.64486   0.70837
 Alpha virt. eigenvalues --    0.82613   0.89881   1.27751
  Beta  occ. eigenvalues --  -21.10436  -1.75998  -1.12757  -1.04132
  Beta virt. eigenvalues --   -0.31843  -0.14451  -0.06061   0.59050   0.72948
  Beta virt. eigenvalues --    0.83877   0.84932   0.92806   1.32053
          Condensed to atoms (all electrons):
              1          2          3
     1  O    7.659087   0.219943   0.219943
     2  H    0.219943   0.244154  -0.013583
     3  H    0.219943  -0.013583   0.244154
 Mulliken atomic charges:
              1
     1  O   -0.098973
     2  H    0.549486
     3  H    0.549486
 Sum of Mulliken atomic charges =   1.00000
 Mulliken charges with hydrogens summed into heavy atoms:
              1
     1  O    1.000000
 Sum of Mulliken charges with hydrogens summed into heavy atoms =   1.00000
          Atomic-Atomic Spin Densities.
              1          2          3
     1  O    1.157422  -0.021932  -0.021932
     2  H   -0.021932  -0.039589   0.004742
     3  H   -0.021932   0.004742  -0.039589
 Mulliken atomic spin densities:
              1
     1  O    1.113558
     2  H   -0.056779
     3  H   -0.056779
 Sum of Mulliken atomic spin densities =   1.00000
 Electronic spatial extent (au):  <R**2>=             15.0448
 Charge=              1.0000 electrons
 Dipole moment (field-independent basis, Debye):
    X=              2.7448    Y=              2.7448    Z=              0.0000  Tot=              3.8817
 Quadrupole moment (field-independent basis, Debye-Ang):
   XX=             -2.9009   YY=             -2.9009   ZZ=             -4.8276
   XY=             -0.0593   XZ=              0.0000   YZ=              0.0000
 Traceless Quadrupole moment (field-independent basis, Debye-Ang):
   XX=              0.6423   YY=              0.6423   ZZ=             -1.2845
   XY=             -0.0593   XZ=              0.0000   YZ=              0.0000
 Octapole moment (field-independent basis, Debye-Ang**2):
  XXX=              1.9323  YYY=              1.9323  ZZZ=              0.0000  XYY=             -0.1987
  XXY=             -0.1987  XXZ=              0.0000  XZZ=             -0.2246  YZZ=             -0.2246
  YYZ=              0.0000  XYZ=              0.0000
 Hexadecapole moment (field-independent basis, Debye-Ang**3):
 XXXX=             -2.1606 YYYY=             -2.1606 ZZZZ=             -2.7612 XXXY=             -0.0242
 XXXZ=              0.0000 YYYX=             -0.0242 YYYZ=              0.0000 ZZZX=              0.0000
 ZZZY=              0.0000 XXYY=             -1.6650 XXZZ=             -1.2948 YYZZ=             -1.2948
 XXYZ=              0.0000 YYXZ=              0.0000 ZZXY=             -0.0132
 N-N= 8.841020130083D+00 E-N=-2.837644410247D+02  KE= 1.117748782059D+02
 Leave Link  601 at Thu Aug 29 21:54:25 2019, MaxMem=   33554432 cpu:       0.0
 (Enter D:\G09W\l9999.exe)
 1|1|UNPC-DESKTOP-8BRL880|SP|UMP2-Full|6-31G|H2O1(1+,2)|AJZ34|29-Aug-20
 19|0||#p UMP2(Full)/6-31G nosymm||H2O||1,2|O,0,0.,0.,0.|H,0,1.,0.,0.|H
 ,0,0.,1.,0.||Version=IA32W-G09RevB.01|HF=-75.5663698|MP2=-75.6617858|P
 UHF=-75.5682148|PMP2-0=-75.6631023|S2=0.756771|S2-1=0.752882|S2A=0.750
 029|RMSD=7.640e-010|PG=C02V [C2(O1),SGV(H2)]||@


 IN THE FIGHT BETWEEN YOU AND THE WORLD, BACK THE WORLD

                                        -- FRANZ KAFKA
 Job cpu time:  0 days  0 hours  0 minutes  2.0 seconds.
 File lengths (MBytes):  RWF=      5 Int=      0 D2E=      0 Chk=      1 Scr=      1
 Normal termination of Gaussian 09 at Thu Aug 29 21:54:25 2019.
