 Entering Link 1 = D:\G09W\l1.exe PID=      3092.
  
 Copyright (c) 1988,1990,1992,1993,1995,1998,2003,2009,2010,
            Gaussian, Inc.  All Rights Reserved.
  
 This is part of the Gaussian(R) 09 program.  It is based on
 the Gaussian(R) 03 system (copyright 2003, Gaussian, Inc.),
 the Gaussian(R) 98 system (copyright 1998, Gaussian, Inc.),
 the Gaussian(R) 94 system (copyright 1995, Gaussian, Inc.),
 the Gaussian 92(TM) system (copyright 1992, Gaussian, Inc.),
 the Gaussian 90(TM) system (copyright 1990, Gaussian, Inc.),
 the Gaussian 88(TM) system (copyright 1988, Gaussian, Inc.),
 the Gaussian 86(TM) system (copyright 1986, Carnegie Mellon
 University), and the Gaussian 82(TM) system (copyright 1983,
 Carnegie Mellon University). Gaussian is a federally registered
 trademark of Gaussian, Inc.
  
 This software contains proprietary and confidential information,
 including trade secrets, belonging to Gaussian, Inc.
  
 This software is provided under written license and may be
 used, copied, transmitted, or stored only in accord with that
 written license.
  
 The following legend is applicable only to US Government
 contracts under FAR:
  
                    RESTRICTED RIGHTS LEGEND
  
 Use, reproduction and disclosure by the US Government is
 subject to restrictions as set forth in subparagraphs (a)
 and (c) of the Commercial Computer Software - Restricted
 Rights clause in FAR 52.227-19.
  
 Gaussian, Inc.
 340 Quinnipiac St., Bldg. 40, Wallingford CT 06492
  
  
 ---------------------------------------------------------------
 Warning -- This program may not be used in any manner that
 competes with the business of Gaussian, Inc. or will provide
 assistance to any competitor of Gaussian, Inc.  The licensee
 of this program is prohibited from giving any competitor of
 Gaussian, Inc. access to this program.  By using this program,
 the user acknowledges that Gaussian, Inc. is engaged in the
 business of creating and licensing software in the field of
 computational chemistry and represents and warrants to the
 licensee that it is not a competitor of Gaussian, Inc. and that
 it will not use this program in any manner prohibited above.
 ---------------------------------------------------------------
  

 Cite this work as:
 Gaussian 09, Revision B.01,
 M. J. Frisch, G. W. Trucks, H. B. Schlegel, G. E. Scuseria, 
 M. A. Robb, J. R. Cheeseman, G. Scalmani, V. Barone, B. Mennucci, 
 G. A. Petersson, H. Nakatsuji, M. Caricato, X. Li, H. P. Hratchian, 
 A. F. Izmaylov, J. Bloino, G. Zheng, J. L. Sonnenberg, M. Hada, 
 M. Ehara, K. Toyota, R. Fukuda, J. Hasegawa, M. Ishida, T. Nakajima, 
 Y. Honda, O. Kitao, H. Nakai, T. Vreven, J. A. Montgomery, Jr., 
 J. E. Peralta, F. Ogliaro, M. Bearpark, J. J. Heyd, E. Brothers, 
 K. N. Kudin, V. N. Staroverov, T. Keith, R. Kobayashi, J. Normand, 
 K. Raghavachari, A. Rendell, J. C. Burant, S. S. Iyengar, J. Tomasi, 
 M. Cossi, N. Rega, J. M. Millam, M. Klene, J. E. Knox, J. B. Cross, 
 V. Bakken, C. Adamo, J. Jaramillo, R. Gomperts, R. E. Stratmann, 
 O. Yazyev, A. J. Austin, R. Cammi, C. Pomelli, J. W. Ochterski, 
 R. L. Martin, K. Morokuma, V. G. Zakrzewski, G. A. Voth, 
 P. Salvador, J. J. Dannenberg, S. Dapprich, A. D. Daniels, 
 O. Farkas, J. B. Foresman, J. V. Ortiz, J. Cioslowski, 
 and D. J. Fox, Gaussian, Inc., Wallingford CT, 2010.
 
 ******************************************
 Gaussian 09:  IA32W-G09RevB.01 12-Aug-2010
                01-Nov-2019 
 ******************************************
 -----------------------------------------
 #p RMP4(Full)/6-31G nosymm SCF(VeryTight)
 -----------------------------------------
 1/38=1/1;
 2/12=2,15=1,17=6,18=5,40=1/2;
 3/5=1,6=6,11=1,16=1,25=1,30=1,116=1/1,2,3;
 4//1;
 5/5=2,17=3,38=5/2;
 8/6=4,9=120000,10=90/1,4;
 9/5=5/13;
 6/7=2,8=2,9=2,10=2/1;
 99/5=1,9=1/99;
 Leave Link    1 at Fri Nov 01 09:23:37 2019, MaxMem=          0 cpu:       0.0
 (Enter D:\G09W\l101.exe)
 ---------------
 H2O2 MP4 Energy
 ---------------
 Symbolic Z-matrix:
 Charge =  0 Multiplicity = 1
 O                     0.        0.        0. 
 O                     0.        0.        1.5 
 H                     1.        0.        0. 
 H                     0.        0.7       1. 
 
 NAtoms=      4 NQM=      4 NQMF=      0 NMic=      0 NMicF=      0 NTot=      4.
                    Isotopes and Nuclear Properties:
 (Nuclear quadrupole moments (NQMom) in fm**2, nuclear magnetic moments (NMagM)
  in nuclear magnetons)

  Atom         1           2           3           4
 IAtWgt=          16          16           1           1
 AtmWgt=  15.9949146  15.9949146   1.0078250   1.0078250
 NucSpn=           0           0           1           1
 AtZEff=   0.0000000   0.0000000   0.0000000   0.0000000
 NQMom=    0.0000000   0.0000000   0.0000000   0.0000000
 NMagM=    0.0000000   0.0000000   2.7928460   2.7928460
 Leave Link  101 at Fri Nov 01 09:23:37 2019, MaxMem=   33554432 cpu:       0.0
 (Enter D:\G09W\l202.exe)
                          Input orientation:                          
 ---------------------------------------------------------------------
 Center     Atomic      Atomic             Coordinates (Angstroms)
 Number     Number       Type             X           Y           Z
 ---------------------------------------------------------------------
      1          8           0        0.000000    0.000000    0.000000
      2          8           0        0.000000    0.000000    1.500000
      3          1           0        1.000000    0.000000    0.000000
      4          1           0        0.000000    0.700000    1.000000
 ---------------------------------------------------------------------
                    Distance matrix (angstroms):
                    1          2          3          4
     1  O    0.000000
     2  O    1.500000   0.000000
     3  H    1.000000   1.802776   0.000000
     4  H    1.220656   0.860233   1.577973   0.000000
 Symmetry turned off by external request.
 Stoichiometry    H2O2
 Framework group  C1[X(H2O2)]
 Deg. of freedom     6
 Full point group                 C1      NOp   1
 Rotational constants (GHZ):    354.8636342     26.4228261     25.7886470
 Leave Link  202 at Fri Nov 01 09:23:37 2019, MaxMem=   33554432 cpu:       0.0
 (Enter D:\G09W\l301.exe)
 Standard basis: 6-31G (6D, 7F)
 Ernie: Thresh=  0.10000D-02 Tol=  0.10000D-05 Strict=F.
 Integral buffers will be    262144 words long.
 Raffenetti 1 integral format.
 Two-electron integral symmetry is turned off.
    22 basis functions,    52 primitive gaussians,    22 cartesian basis functions
     9 alpha electrons        9 beta electrons
       nuclear repulsion energy        37.8846742418 Hartrees.
 IExCor=    0 DFT=F Ex=HF Corr=None ExCW=0 ScaHFX=  1.000000
 ScaDFX=  1.000000  1.000000  1.000000  1.000000 ScalE2=  1.000000  1.000000
 IRadAn=      0 IRanWt=     -1 IRanGd=            0 ICorTp=0
 NAtoms=    4 NActive=    4 NUniq=    4 SFac= 1.00D+00 NAtFMM=   50 NAOKFM=F Big=F
 Leave Link  301 at Fri Nov 01 09:23:37 2019, MaxMem=   33554432 cpu:       0.0
 (Enter D:\G09W\l302.exe)
 NPDir=0 NMtPBC=     1 NCelOv=     1 NCel=       1 NClECP=     1 NCelD=      1
         NCelK=      1 NCelE2=     1 NClLst=     1 CellRange=     0.0.
 One-electron integrals computed using PRISM.
 NBasis=    22 RedAO= T  NBF=    22
 NBsUse=    22 1.00D-06 NBFU=    22
 Leave Link  302 at Fri Nov 01 09:23:38 2019, MaxMem=   33554432 cpu:       0.0
 (Enter D:\G09W\l303.exe)
 DipDrv:  MaxL=1.
 Leave Link  303 at Fri Nov 01 09:23:38 2019, MaxMem=   33554432 cpu:       0.0
 (Enter D:\G09W\l401.exe)
 Harris functional with IExCor=  205 diagonalized for initial guess.
 ExpMin= 1.61D-01 ExpMax= 5.48D+03 ExpMxC= 8.25D+02 IAcc=1 IRadAn=         1 AccDes= 0.00D+00
 HarFok:  IExCor=  205 AccDes= 0.00D+00 IRadAn=         1 IDoV= 1
 ScaDFX=  1.000000  1.000000  1.000000  1.000000
 FoFCou: FMM=F IPFlag=           0 FMFlag=      100000 FMFlg1=           0
         NFxFlg=           0 DoJE=T BraDBF=F KetDBF=T FulRan=T
         Omega=  0.000000  0.000000  1.000000  0.000000  0.000000 ICntrl=     500 IOpCl=  0
         NMat0=    1 NMatS0=    1 NMatT0=    0 NMatD0=    1 NMtDS0=    0 NMtDT0=    0
         I1Cent=           4 NGrid=           0.
 Symmetry not used in FoFCou.
 Harris En= -150.712206454886    
 Leave Link  401 at Fri Nov 01 09:23:39 2019, MaxMem=   33554432 cpu:       1.0
 (Enter D:\G09W\l502.exe)
 Closed shell SCF:
 Requested convergence on RMS density matrix=1.00D-08 within 128 cycles.
 Requested convergence on MAX density matrix=1.00D-06.
 Requested convergence on             energy=1.00D-06.
 No special actions if energy rises.
 Using DIIS extrapolation, IDIIS=  1040.
 Two-electron integral symmetry not used.
 Keep R1 ints in memory in canonical form, NReq=851990.
 IEnd=       19845 IEndB=       19845 NGot=    33554432 MDV=    33519575
 LenX=    33519575 LenY=    33518650
 Symmetry not used in FoFDir.
 MinBra= 0 MaxBra= 1 Meth= 1.
 IRaf=       0 NMat=   1 IRICut=       1 DoRegI=T DoRafI=F ISym2E= 0 JSym2E=0.

 Cycle   1  Pass 1  IDiag  1:
 E= -150.538303127557    
 DIIS: error= 4.60D-02 at cycle   1 NSaved=   1.
 NSaved= 1 IEnMin= 1 EnMin= -150.538303127557     IErMin= 1 ErrMin= 4.60D-02
 ErrMax= 4.60D-02 EMaxC= 1.00D-01 BMatC= 7.25D-02 BMatP= 7.25D-02
 IDIUse=3 WtCom= 5.40D-01 WtEn= 4.60D-01
 Coeff-Com:  0.100D+01
 Coeff-En:   0.100D+01
 Coeff:      0.100D+01
 Gap=     0.734 Goal=   None    Shift=    0.000
 GapD=    0.734 DampG=2.000 DampE=0.500 DampFc=1.0000 IDamp=-1.
 RMSDP=1.11D-02 MaxDP=7.72D-02              OVMax= 7.41D-02

 Cycle   2  Pass 1  IDiag  1:
 E= -150.574333467186     Delta-E=       -0.036030339628 Rises=F Damp=F
 DIIS: error= 2.62D-02 at cycle   2 NSaved=   2.
 NSaved= 2 IEnMin= 2 EnMin= -150.574333467186     IErMin= 2 ErrMin= 2.62D-02
 ErrMax= 2.62D-02 EMaxC= 1.00D-01 BMatC= 1.48D-02 BMatP= 7.25D-02
 IDIUse=3 WtCom= 7.38D-01 WtEn= 2.62D-01
 Coeff-Com:  0.260D+00 0.740D+00
 Coeff-En:   0.000D+00 0.100D+01
 Coeff:      0.192D+00 0.808D+00
 Gap=     0.719 Goal=   None    Shift=    0.000
 RMSDP=4.73D-03 MaxDP=4.13D-02 DE=-3.60D-02 OVMax= 3.12D-02

 Cycle   3  Pass 1  IDiag  1:
 E= -150.583218356415     Delta-E=       -0.008884889229 Rises=F Damp=F
 DIIS: error= 8.87D-03 at cycle   3 NSaved=   3.
 NSaved= 3 IEnMin= 3 EnMin= -150.583218356415     IErMin= 3 ErrMin= 8.87D-03
 ErrMax= 8.87D-03 EMaxC= 1.00D-01 BMatC= 2.03D-03 BMatP= 1.48D-02
 IDIUse=3 WtCom= 9.11D-01 WtEn= 8.87D-02
 Coeff-Com: -0.477D-02 0.245D+00 0.760D+00
 Coeff-En:   0.000D+00 0.000D+00 0.100D+01
 Coeff:     -0.435D-02 0.223D+00 0.781D+00
 Gap=     0.679 Goal=   None    Shift=    0.000
 RMSDP=1.71D-03 MaxDP=1.27D-02 DE=-8.88D-03 OVMax= 1.94D-02

 Cycle   4  Pass 1  IDiag  1:
 E= -150.584787864984     Delta-E=       -0.001569508569 Rises=F Damp=F
 DIIS: error= 2.64D-03 at cycle   4 NSaved=   4.
 NSaved= 4 IEnMin= 4 EnMin= -150.584787864984     IErMin= 4 ErrMin= 2.64D-03
 ErrMax= 2.64D-03 EMaxC= 1.00D-01 BMatC= 2.63D-04 BMatP= 2.03D-03
 IDIUse=3 WtCom= 9.74D-01 WtEn= 2.64D-02
 Coeff-Com: -0.175D-01 0.205D-01 0.305D+00 0.692D+00
 Coeff-En:   0.000D+00 0.000D+00 0.000D+00 0.100D+01
 Coeff:     -0.170D-01 0.200D-01 0.297D+00 0.701D+00
 Gap=     0.676 Goal=   None    Shift=    0.000
 RMSDP=4.83D-04 MaxDP=4.31D-03 DE=-1.57D-03 OVMax= 2.92D-03

 Cycle   5  Pass 1  IDiag  1:
 E= -150.585000089745     Delta-E=       -0.000212224761 Rises=F Damp=F
 DIIS: error= 5.49D-04 at cycle   5 NSaved=   5.
 NSaved= 5 IEnMin= 5 EnMin= -150.585000089745     IErMin= 5 ErrMin= 5.49D-04
 ErrMax= 5.49D-04 EMaxC= 1.00D-01 BMatC= 9.37D-06 BMatP= 2.63D-04
 IDIUse=3 WtCom= 9.95D-01 WtEn= 5.49D-03
 Coeff-Com:  0.577D-02-0.361D-01-0.153D+00-0.236D+00 0.142D+01
 Coeff-En:   0.000D+00 0.000D+00 0.000D+00 0.000D+00 0.100D+01
 Coeff:      0.574D-02-0.359D-01-0.152D+00-0.234D+00 0.142D+01
 Gap=     0.675 Goal=   None    Shift=    0.000
 RMSDP=2.86D-04 MaxDP=1.54D-03 DE=-2.12D-04 OVMax= 2.35D-03

 Cycle   6  Pass 1  IDiag  1:
 E= -150.585029321386     Delta-E=       -0.000029231641 Rises=F Damp=F
 DIIS: error= 1.77D-04 at cycle   6 NSaved=   6.
 NSaved= 6 IEnMin= 6 EnMin= -150.585029321386     IErMin= 6 ErrMin= 1.77D-04
 ErrMax= 1.77D-04 EMaxC= 1.00D-01 BMatC= 8.99D-07 BMatP= 9.37D-06
 IDIUse=3 WtCom= 9.98D-01 WtEn= 1.77D-03
 Coeff-Com: -0.219D-02 0.198D-01 0.807D-01 0.851D-01-0.871D+00 0.169D+01
 Coeff-En:   0.000D+00 0.000D+00 0.000D+00 0.000D+00 0.000D+00 0.100D+01
 Coeff:     -0.218D-02 0.197D-01 0.806D-01 0.850D-01-0.869D+00 0.169D+01
 Gap=     0.675 Goal=   None    Shift=    0.000
 RMSDP=1.28D-04 MaxDP=6.84D-04 DE=-2.92D-05 OVMax= 1.46D-03

 Cycle   7  Pass 1  IDiag  1:
 E= -150.585033166370     Delta-E=       -0.000003844984 Rises=F Damp=F
 DIIS: error= 6.88D-05 at cycle   7 NSaved=   7.
 NSaved= 7 IEnMin= 7 EnMin= -150.585033166370     IErMin= 7 ErrMin= 6.88D-05
 ErrMax= 6.88D-05 EMaxC= 1.00D-01 BMatC= 8.20D-08 BMatP= 8.99D-07
 IDIUse=1 WtCom= 1.00D+00 WtEn= 0.00D+00
 Coeff-Com:  0.152D-02-0.148D-01-0.590D-01-0.607D-01 0.675D+00-0.154D+01
 Coeff-Com:  0.199D+01
 Coeff:      0.152D-02-0.148D-01-0.590D-01-0.607D-01 0.675D+00-0.154D+01
 Coeff:      0.199D+01
 Gap=     0.675 Goal=   None    Shift=    0.000
 RMSDP=5.75D-05 MaxDP=2.55D-04 DE=-3.84D-06 OVMax= 7.45D-04

 Cycle   8  Pass 1  IDiag  1:
 E= -150.585033719741     Delta-E=       -0.000000553371 Rises=F Damp=F
 DIIS: error= 2.07D-05 at cycle   8 NSaved=   8.
 NSaved= 8 IEnMin= 8 EnMin= -150.585033719741     IErMin= 8 ErrMin= 2.07D-05
 ErrMax= 2.07D-05 EMaxC= 1.00D-01 BMatC= 8.93D-09 BMatP= 8.20D-08
 IDIUse=1 WtCom= 1.00D+00 WtEn= 0.00D+00
 Coeff-Com: -0.886D-03 0.892D-02 0.350D-01 0.359D-01-0.410D+00 0.974D+00
 Coeff-Com: -0.152D+01 0.187D+01
 Coeff:     -0.886D-03 0.892D-02 0.350D-01 0.359D-01-0.410D+00 0.974D+00
 Coeff:     -0.152D+01 0.187D+01
 Gap=     0.675 Goal=   None    Shift=    0.000
 RMSDP=1.88D-05 MaxDP=9.87D-05 DE=-5.53D-07 OVMax= 2.47D-04

 Cycle   9  Pass 1  IDiag  1:
 E= -150.585033780836     Delta-E=       -0.000000061094 Rises=F Damp=F
 DIIS: error= 6.46D-06 at cycle   9 NSaved=   9.
 NSaved= 9 IEnMin= 9 EnMin= -150.585033780836     IErMin= 9 ErrMin= 6.46D-06
 ErrMax= 6.46D-06 EMaxC= 1.00D-01 BMatC= 7.68D-10 BMatP= 8.93D-09
 IDIUse=1 WtCom= 1.00D+00 WtEn= 0.00D+00
 Coeff-Com:  0.333D-03-0.336D-02-0.132D-01-0.129D-01 0.158D+00-0.389D+00
 Coeff-Com:  0.656D+00-0.109D+01 0.169D+01
 Coeff:      0.333D-03-0.336D-02-0.132D-01-0.129D-01 0.158D+00-0.389D+00
 Coeff:      0.656D+00-0.109D+01 0.169D+01
 Gap=     0.675 Goal=   None    Shift=    0.000
 RMSDP=5.19D-06 MaxDP=2.47D-05 DE=-6.11D-08 OVMax= 6.11D-05

 Cycle  10  Pass 1  IDiag  1:
 E= -150.585033785002     Delta-E=       -0.000000004166 Rises=F Damp=F
 DIIS: error= 1.15D-06 at cycle  10 NSaved=  10.
 NSaved=10 IEnMin=10 EnMin= -150.585033785002     IErMin=10 ErrMin= 1.15D-06
 ErrMax= 1.15D-06 EMaxC= 1.00D-01 BMatC= 2.30D-11 BMatP= 7.68D-10
 IDIUse=1 WtCom= 1.00D+00 WtEn= 0.00D+00
 Coeff-Com: -0.715D-04 0.722D-03 0.285D-02 0.278D-02-0.353D-01 0.883D-01
 Coeff-Com: -0.153D+00 0.275D+00-0.560D+00 0.138D+01
 Coeff:     -0.715D-04 0.722D-03 0.285D-02 0.278D-02-0.353D-01 0.883D-01
 Coeff:     -0.153D+00 0.275D+00-0.560D+00 0.138D+01
 Gap=     0.675 Goal=   None    Shift=    0.000
 RMSDP=7.25D-07 MaxDP=3.07D-06 DE=-4.17D-09 OVMax= 7.49D-06

 Cycle  11  Pass 1  IDiag  1:
 E= -150.585033785085     Delta-E=       -0.000000000084 Rises=F Damp=F
 DIIS: error= 1.75D-07 at cycle  11 NSaved=  11.
 NSaved=11 IEnMin=11 EnMin= -150.585033785085     IErMin=11 ErrMin= 1.75D-07
 ErrMax= 1.75D-07 EMaxC= 1.00D-01 BMatC= 8.66D-13 BMatP= 2.30D-11
 IDIUse=1 WtCom= 1.00D+00 WtEn= 0.00D+00
 Coeff-Com:  0.636D-05-0.657D-04-0.268D-03-0.222D-03 0.356D-02-0.925D-02
 Coeff-Com:  0.166D-01-0.321D-01 0.767D-01-0.319D+00 0.126D+01
 Coeff:      0.636D-05-0.657D-04-0.268D-03-0.222D-03 0.356D-02-0.925D-02
 Coeff:      0.166D-01-0.321D-01 0.767D-01-0.319D+00 0.126D+01
 Gap=     0.675 Goal=   None    Shift=    0.000
 RMSDP=9.06D-08 MaxDP=3.82D-07 DE=-8.35D-11 OVMax= 7.59D-07

 Cycle  12  Pass 1  IDiag  1:
 E= -150.585033785088     Delta-E=       -0.000000000002 Rises=F Damp=F
 DIIS: error= 3.90D-08 at cycle  12 NSaved=  12.
 NSaved=12 IEnMin=12 EnMin= -150.585033785088     IErMin=12 ErrMin= 3.90D-08
 ErrMax= 3.90D-08 EMaxC= 1.00D-01 BMatC= 3.52D-14 BMatP= 8.66D-13
 IDIUse=1 WtCom= 1.00D+00 WtEn= 0.00D+00
 Coeff-Com: -0.585D-06 0.667D-05 0.294D-04 0.106D-04-0.492D-03 0.137D-02
 Coeff-Com: -0.255D-02 0.535D-02-0.144D-01 0.928D-01-0.586D+00 0.150D+01
 Coeff:     -0.585D-06 0.667D-05 0.294D-04 0.106D-04-0.492D-03 0.137D-02
 Coeff:     -0.255D-02 0.535D-02-0.144D-01 0.928D-01-0.586D+00 0.150D+01
 Gap=     0.675 Goal=   None    Shift=    0.000
 RMSDP=2.36D-08 MaxDP=1.10D-07 DE=-2.30D-12 OVMax= 1.97D-07

 Cycle  13  Pass 1  IDiag  1:
 E= -150.585033785088     Delta-E=        0.000000000000 Rises=F Damp=F
 DIIS: error= 1.09D-08 at cycle  13 NSaved=  13.
 NSaved=13 IEnMin=13 EnMin= -150.585033785088     IErMin=13 ErrMin= 1.09D-08
 ErrMax= 1.09D-08 EMaxC= 1.00D-01 BMatC= 2.07D-15 BMatP= 3.52D-14
 IDIUse=1 WtCom= 1.00D+00 WtEn= 0.00D+00
 Coeff-Com: -0.105D-07-0.131D-06-0.150D-05 0.447D-05 0.623D-04-0.202D-03
 Coeff-Com:  0.395D-03-0.906D-03 0.258D-02-0.248D-01 0.197D+00-0.654D+00
 Coeff-Com:  0.148D+01
 Coeff:     -0.105D-07-0.131D-06-0.150D-05 0.447D-05 0.623D-04-0.202D-03
 Coeff:      0.395D-03-0.906D-03 0.258D-02-0.248D-01 0.197D+00-0.654D+00
 Coeff:      0.148D+01
 Gap=     0.675 Goal=   None    Shift=    0.000
 RMSDP=5.65D-09 MaxDP=3.35D-08 DE=-8.53D-14 OVMax= 6.81D-08

 SCF Done:  E(RHF) =  -150.585033785     A.U. after   13 cycles
             Convg  =    0.5655D-08             -V/T =  1.9966
 KE= 1.510996279781D+02 PE=-4.335200886137D+02 EE= 9.395075260875D+01
 Leave Link  502 at Fri Nov 01 09:23:39 2019, MaxMem=   33554432 cpu:       0.0
 (Enter D:\G09W\l801.exe)
 Windowed orbitals will be sorted by symmetry type.
 Range of M.O.s used for correlation:     1    22
 NBasis=    22 NAE=     9 NBE=     9 NFC=     0 NFV=     0
 NROrb=     22 NOA=     9 NOB=     9 NVA=    13 NVB=    13
 Leave Link  801 at Fri Nov 01 09:23:40 2019, MaxMem=   33554432 cpu:       0.0
 (Enter D:\G09W\l804.exe)
 Closed-shell transformation, MDV=    33554432 ITran=4 ISComp=1.
 Semi-Direct transformation.
 ModeAB=           2 MOrb=             9 LenV=      33450162
 LASXX=        30501 LTotXX=       30501 LenRXX=       30501
 LTotAB=       35721 MaxLAS=       50094 LenRXY=       50094
 NonZer=       61002 LenScr=     1048064 LnRSAI=           0
 LnScr1=           0 LExtra=           0 Total=      1128659
 MaxDsk=          -1 SrtSym=           F ITran=            4
 DoSDTr:  NPSUse=  1
 JobTyp=0 Pass  1:  I=   1 to   9.
 (rs|ai) integrals will be sorted in core.
 Complete sort for first half transformation.
 First half transformation complete.
 Complete sort for second half transformation.
 Second half transformation complete.
 Spin components of T(2) and E(2):
     alpha-alpha T2 =       0.1083187981D-01 E2=     -0.3317353941D-01
     alpha-beta  T2 =       0.7093517808D-01 E2=     -0.2026646804D+00
     beta-beta   T2 =       0.1083187981D-01 E2=     -0.3317353941D-01
 ANorm=    0.1045274575D+01
 E2 =    -0.2690117593D+00 EUMP2 =    -0.15085404554435D+03
 Leave Link  804 at Fri Nov 01 09:23:40 2019, MaxMem=   33554432 cpu:       0.0
 (Enter D:\G09W\l913.exe)
 CIDS:  MDV=    33554432.
 IFCWin=0 IBDFC=1 NFBD=     0     0 NFCmp=     0     0 NFFFC=     0     0
 Using DD3R+UMP44R for 1st iteration, S=T.
 Using DD4RQ for 2nd and later iterations.
 R2 and R3 integrals will be kept in memory, NReq=      864262.
 Symmetry not used in FoFDir.
 MinBra= 0 MaxBra= 1 Meth= 1.
 IRaf=       0 NMat=   1 IRICut=       1 DoRegI=T DoRafI=F ISym2E= 0 JSym2E=0.
 MP4(SDTQ)
 =========
 DD1Dir will call FoFMem   1 times, MxPair=        90
 NAB=    45 NAA=     0 NBB=     0.
 MP4(D)= -0.88190269D-02
 MP4(S)= -0.43821604D-02
 MP4(R+Q)=  0.11355775D-02
 T4(AAA)= -0.12591678D-03
 T4(AAB)= -0.32303846D-02
 Time for triples=        0.00 seconds.
 MP4(T)=   -0.67126028D-02
 E3=        0.74517392D-02        EUMP3=      -0.15084659381D+03
 E4(DQ)=   -0.76834494D-02        UMP4(DQ)=   -0.15085427725D+03
 E4(SDQ)=  -0.12065610D-01        UMP4(SDQ)=  -0.15085865941D+03
 E4(SDTQ)= -0.18778213D-01        UMP4(SDTQ)= -0.15086537202D+03
 VARIATIONAL ENERGIES WITH THE FIRST-ORDER WAVEFUNCTION:
 E(VAR1)=  -0.15082442631D+03     E(CISD,4)=  -0.15083488479D+03
 Largest amplitude= 8.15D-02
 Leave Link  913 at Fri Nov 01 09:23:41 2019, MaxMem=   33554432 cpu:       1.0
 (Enter D:\G09W\l601.exe)
 Copying SCF densities to generalized density rwf, IOpCl= 0 IROHF=0.

 **********************************************************************

            Population analysis using the SCF density.

 **********************************************************************

 Alpha  occ. eigenvalues --  -20.67103 -20.63571  -1.58083  -1.23933  -0.76882
 Alpha  occ. eigenvalues --   -0.72551  -0.58961  -0.52943  -0.51920
 Alpha virt. eigenvalues --    0.15566   0.19046   0.30990   1.01629   1.08030
 Alpha virt. eigenvalues --    1.11567   1.12472   1.21425   1.25020   1.30673
 Alpha virt. eigenvalues --    1.34264   1.70655   1.87645
          Condensed to atoms (all electrons):
              1          2          3          4
     1  O    8.431457  -0.078595   0.227632  -0.056793
     2  O   -0.078595   8.242001  -0.025707   0.233868
     3  H    0.227632  -0.025707   0.352064  -0.000064
     4  H   -0.056793   0.233868  -0.000064   0.373797
 Mulliken atomic charges:
              1
     1  O   -0.523702
     2  O   -0.371566
     3  H    0.446076
     4  H    0.449192
 Sum of Mulliken atomic charges =   0.00000
 Mulliken charges with hydrogens summed into heavy atoms:
              1
     1  O   -0.077626
     2  O    0.077626
 Sum of Mulliken charges with hydrogens summed into heavy atoms =   0.00000
 Electronic spatial extent (au):  <R**2>=             99.8625
 Charge=              0.0000 electrons
 Dipole moment (field-independent basis, Debye):
    X=              2.2619    Y=              1.6851    Z=             -0.7490  Tot=              2.9184
 Quadrupole moment (field-independent basis, Debye-Ang):
   XX=            -10.0031   YY=            -11.1041   ZZ=            -14.7935
   XY=             -0.0029   XZ=             -0.0874   YZ=              1.7984
 Traceless Quadrupole moment (field-independent basis, Debye-Ang):
   XX=              1.9638   YY=              0.8628   ZZ=             -2.8266
   XY=             -0.0029   XZ=             -0.0874   YZ=              1.7984
 Octapole moment (field-independent basis, Debye-Ang**2):
  XXX=              1.0048  YYY=             -0.0015  ZZZ=            -31.2247  XYY=             -0.3454
  XXY=             -0.1621  XXZ=             -9.1449  XZZ=             -0.2570  YZZ=              2.0036
  YYZ=             -7.4515  XYZ=              0.0057
 Hexadecapole moment (field-independent basis, Debye-Ang**3):
 XXXX=             -8.2703 YYYY=             -8.8554 ZZZZ=            -91.2437 XXXY=             -0.0069
 XXXZ=             -0.0156 YYYX=             -0.0083 YYYZ=              0.0150 ZZZX=              0.1646
 ZZZY=              2.2087 XXYY=             -3.3142 XXZZ=            -17.0573 YYZZ=            -14.6949
 XXYZ=             -0.1433 YYXZ=             -0.0211 ZZXY=              0.0102
 N-N= 3.788467424183D+01 E-N=-4.335200886046D+02  KE= 1.510996279781D+02
 Leave Link  601 at Fri Nov 01 09:23:41 2019, MaxMem=   33554432 cpu:       0.0
 (Enter D:\G09W\l9999.exe)
 1|1|UNPC-DESKTOP-8BRL880|SP|RMP4SDTQ-Full|6-31G|H2O2|AJZ34|01-Nov-2019
 |0||#p RMP4(Full)/6-31G nosymm SCF(VeryTight)||H2O2 MP4 Energy||0,1|O,
 0,0.,0.,0.|O,0,0.,0.,1.5|H,0,1.,0.,0.|H,0,0.,0.7,1.||Version=IA32W-G09
 RevB.01|HF=-150.5850338|MP2=-150.8540455|MP3=-150.8465938|MP4D=-150.85
 54128|MP4DQ=-150.8542773|MP4SDQ=-150.8586594|MP4SDTQ=-150.865372|RMSD=
 5.655e-009|PG=C01 [X(H2O2)]||@


 MANHOOD BEGINS BY TRYING TO SHAVE FACE,
 AND ENDS BY TRYING TO SAVE FACE.
 Job cpu time:  0 days  0 hours  0 minutes  4.0 seconds.
 File lengths (MBytes):  RWF=     14 Int=      0 D2E=      0 Chk=      1 Scr=      1
 Normal termination of Gaussian 09 at Fri Nov 01 09:23:41 2019.
